<?xml version="1.0" encoding="UTF-8"?>

<!-- generated on 2024-07-10 21:53:58 by Eclipse SUMO GUI Version v1_19_0+1520-dc4640af2ac
<configuration xmlns:xsi="http://www.w3.org/2001/XMLSchema-instance" xsi:noNamespaceSchemaLocation="http://sumo.dlr.de/xsd/sumoConfiguration.xsd">

    <input>
        <net-file value="avhuaynacapac.net.xml"/>
        <route-files value="rutasJTrrouter40.rou.xml"/>
        <additional-files value="dects.add.xml,busstops.add.xml,avhuaynacapac.poly.xml"/>
    </input>

    <output>
        <emission-output value="co2.xml"/>
        <fcd-output value="fcd2.xml"/>
        <tripinfo-output value="tripinfo2.xml"/>
        <edgedata-output value="edgedata.xml"/>
    </output>

    <time>
        <begin value="0"/>
        <end value="50600"/>
        <step-length value="1"/>
    </time>

    <processing>
        <ignore-route-errors value="true"/>
    </processing>

    <emissions>
        <device.emissions.probability value="1"/>
    </emissions>

    <traci_server>
        <remote-port value="52569"/>
    </traci_server>

</configuration>
-->

<meandata xmlns:xsi="http://www.w3.org/2001/XMLSchema-instance" xsi:noNamespaceSchemaLocation="http://sumo.dlr.de/xsd/meandata_file.xsd">
    <interval begin="0.00" end="54582.00" id="DEFAULT_EDGEDATA">
        <edge id="-389741416" sampledSeconds="30797.78" traveltime="4.64" overlapTraveltime="5.96" density="228.44" laneDensity="114.22" occupancy="17.99" waitingTime="20686.00" timeLoss="23683.06" speed="1.38" speedRelative="0.10" departed="0" arrived="0" entered="5275" left="5190" laneChangedFrom="109" laneChangedTo="109"/>
        <edge id="-389741417#0" sampledSeconds="56349.10" traveltime="13.17" overlapTraveltime="15.01" density="109.36" laneDensity="54.68" occupancy="23.08" waitingTime="40365.00" timeLoss="46868.67" speed="1.03" speedRelative="0.07" departed="0" arrived="0" entered="3835" left="3835" laneChangedFrom="289" laneChangedTo="289"/>
        <edge id="-389741417#1" sampledSeconds="174505.69" traveltime="43.94" overlapTraveltime="46.09" density="43.50" laneDensity="21.75" occupancy="13.75" waitingTime="83079.40" timeLoss="118365.19" speed="1.74" speedRelative="0.13" departed="0" arrived="0" entered="3835" left="3823" laneChangedFrom="2445" laneChangedTo="2465"/>
        <edge id="-389741418" sampledSeconds="47419.35" traveltime="9.65" overlapTraveltime="11.38" density="22.46" laneDensity="11.23" occupancy="8.08" waitingTime="1502.00" timeLoss="7772.79" speed="4.12" speedRelative="0.30" departed="0" arrived="0" entered="4395" left="4395" laneChangedFrom="2015" laneChangedTo="2015"/>
        <edge id="-389741419" sampledSeconds="162635.41" traveltime="36.68" overlapTraveltime="38.09" density="27.91" laneDensity="13.96" occupancy="8.14" waitingTime="57257.00" timeLoss="84953.15" speed="2.96" speedRelative="0.21" departed="0" arrived="0" entered="4277" left="4277" laneChangedFrom="528" laneChangedTo="528"/>
        <edge id="-398531209" sampledSeconds="740.19" traveltime="3.35" overlapTraveltime="4.04" density="5.90" laneDensity="5.90" occupancy="1.14" waitingTime="303.00" timeLoss="452.28" speed="1.83" speedRelative="0.08" departed="105" arrived="0" entered="111" left="216" laneChangedFrom="0" laneChangedTo="0"/>
        <edge id="-47861233" sampledSeconds="64642.29" traveltime="39.17" overlapTraveltime="41.25" density="15.70" laneDensity="7.85" occupancy="5.75" waitingTime="35435.00" timeLoss="42047.65" speed="2.02" speedRelative="0.15" departed="0" arrived="0" entered="1575" left="1575" laneChangedFrom="563" laneChangedTo="563"/>
        <edge id="-47861236" sampledSeconds="16700.53" traveltime="4.74" overlapTraveltime="6.19" density="12.09" laneDensity="6.05" occupancy="3.25" waitingTime="0.00" timeLoss="2006.14" speed="5.25" speedRelative="0.38" departed="0" arrived="0" entered="2772" left="2772" laneChangedFrom="115" laneChangedTo="115"/>
        <edge id="-47861237" sampledSeconds="41821.72" traveltime="6.31" overlapTraveltime="7.49" density="22.45" laneDensity="11.22" occupancy="5.69" waitingTime="61.00" timeLoss="5824.05" speed="5.38" speedRelative="0.39" departed="0" arrived="0" entered="5650" left="5650" laneChangedFrom="530" laneChangedTo="530"/>
        <edge id="-48202921" sampledSeconds="195613.82" traveltime="45.22" overlapTraveltime="46.50" density="44.49" laneDensity="22.24" occupancy="12.46" waitingTime="110444.00" timeLoss="137389.40" speed="1.86" speedRelative="0.13" departed="0" arrived="0" entered="4217" left="4217" laneChangedFrom="525" laneChangedTo="525"/>
        <edge id="-48202922" sampledSeconds="82745.50" traveltime="47.52" overlapTraveltime="50.27" density="14.08" laneDensity="7.04" occupancy="6.36" waitingTime="29275.00" timeLoss="37927.56" speed="2.33" speedRelative="0.17" departed="0" arrived="0" entered="1680" left="1680" laneChangedFrom="1205" laneChangedTo="1205"/>
        <edge id="-48202923" sampledSeconds="122930.08" traveltime="32.41" overlapTraveltime="33.85" density="24.83" laneDensity="12.42" occupancy="7.51" waitingTime="50455.00" timeLoss="65657.14" speed="2.87" speedRelative="0.21" departed="0" arrived="0" entered="3643" left="3643" laneChangedFrom="860" laneChangedTo="860"/>
        <edge id="-48202929#0" sampledSeconds="95786.16" traveltime="26.08" overlapTraveltime="27.39" density="18.68" laneDensity="18.68" occupancy="9.02" waitingTime="28038.00" timeLoss="42526.18" speed="3.61" speedRelative="0.26" departed="0" arrived="0" entered="3497" left="3497" laneChangedFrom="0" laneChangedTo="0"/>
        <edge id="-48202929#1" sampledSeconds="3504.65" traveltime="0.09" overlapTraveltime="1.01" density="133.33" laneDensity="133.33" occupancy="6.00" waitingTime="179.87" timeLoss="674.39" speed="5.23" speedRelative="0.38" departed="0" arrived="0" entered="3497" left="3497" laneChangedFrom="0" laneChangedTo="0"/>
        <edge id="-48202930" sampledSeconds="44060.85" traveltime="17.34" overlapTraveltime="18.20" density="8.04" laneDensity="8.04" occupancy="3.93" waitingTime="0.00" timeLoss="4714.61" speed="5.79" speedRelative="0.70" departed="0" arrived="2473" entered="2473" left="0" laneChangedFrom="0" laneChangedTo="0"/>
        <edge id="-48866096" sampledSeconds="256.76" traveltime="18.37" overlapTraveltime="19.75" density="0.05" laneDensity="0.05" occupancy="0.02" waitingTime="18.00" timeLoss="56.94" speed="4.99" speedRelative="0.36" departed="0" arrived="0" entered="13" left="13" laneChangedFrom="0" laneChangedTo="0"/>
        <edge id="-60204530" sampledSeconds="176274.32" traveltime="79.85" overlapTraveltime="81.59" density="9.75" laneDensity="4.88" occupancy="3.44" waitingTime="32030.00" timeLoss="54419.66" speed="4.15" speedRelative="0.30" departed="2208" arrived="0" entered="0" left="2208" laneChangedFrom="2103" laneChangedTo="2103"/>
        <edge id="-604749597" sampledSeconds="65751.00" traveltime="10.53" overlapTraveltime="11.71" density="21.32" laneDensity="10.66" occupancy="5.73" waitingTime="3.00" timeLoss="9405.11" speed="5.34" speedRelative="0.38" departed="0" arrived="0" entered="5650" left="5650" laneChangedFrom="121" laneChangedTo="121"/>
        <edge id="-972644144#0" sampledSeconds="792.43" traveltime="48.93" overlapTraveltime="49.84" density="0.05" laneDensity="0.05" occupancy="0.03" waitingTime="0.00" timeLoss="79.70" speed="5.73" speedRelative="0.41" departed="0" arrived="16" entered="16" left="0" laneChangedFrom="0" laneChangedTo="0"/>
        <edge id="-972644144#1" sampledSeconds="177.19" traveltime="12.55" overlapTraveltime="13.63" density="0.05" laneDensity="0.05" occupancy="0.02" waitingTime="0.00" timeLoss="23.78" speed="5.59" speedRelative="0.40" departed="0" arrived="0" entered="13" left="13" laneChangedFrom="0" laneChangedTo="0"/>
        <edge id="1023790814" sampledSeconds="1124.51" traveltime="16.48" overlapTraveltime="19.73" density="0.21" laneDensity="0.21" occupancy="0.39" waitingTime="135.00" timeLoss="150.21" speed="6.06" speedRelative="0.87" departed="0" arrived="0" entered="57" left="57" laneChangedFrom="0" laneChangedTo="0"/>
        <edge id="118664583#0" sampledSeconds="27779.79" traveltime="18.63" overlapTraveltime="19.84" density="5.13" laneDensity="2.56" occupancy="1.56" waitingTime="23.00" timeLoss="2963.99" speed="5.33" speedRelative="0.24" departed="0" arrived="1349" entered="1440" left="90" laneChangedFrom="241" laneChangedTo="243"/>
        <edge id="118664583#1" sampledSeconds="4840.12" traveltime="50.22" overlapTraveltime="53.78" density="0.45" laneDensity="0.22" occupancy="0.29" waitingTime="17.00" timeLoss="569.97" speed="3.93" speedRelative="0.18" departed="0" arrived="0" entered="90" left="90" laneChangedFrom="0" laneChangedTo="0"/>
        <edge id="118664583#2" sampledSeconds="3538.19" traveltime="38.88" overlapTraveltime="42.41" density="0.42" laneDensity="0.21" occupancy="0.28" waitingTime="0.00" timeLoss="397.96" speed="3.96" speedRelative="0.18" departed="0" arrived="90" entered="90" left="0" laneChangedFrom="0" laneChangedTo="0"/>
        <edge id="285931678" sampledSeconds="3022.02" traveltime="17.32" overlapTraveltime="18.20" density="0.55" laneDensity="0.55" occupancy="0.27" waitingTime="0.00" timeLoss="297.45" speed="5.78" speedRelative="0.69" departed="0" arrived="170" entered="170" left="0" laneChangedFrom="0" laneChangedTo="0"/>
        <edge id="300069416#0" sampledSeconds="164154.07" traveltime="19.96" overlapTraveltime="20.83" density="25.97" laneDensity="12.98" occupancy="6.38" waitingTime="0.00" timeLoss="17319.79" speed="5.80" speedRelative="0.70" departed="0" arrived="8036" entered="8036" left="0" laneChangedFrom="1532" laneChangedTo="1532"/>
        <edge id="303057278" sampledSeconds="3267.63" traveltime="1.41" overlapTraveltime="2.32" density="7.95" laneDensity="3.98" occupancy="1.25" waitingTime="124.00" timeLoss="464.72" speed="5.48" speedRelative="0.39" departed="0" arrived="0" entered="1419" left="1419" laneChangedFrom="102" laneChangedTo="102"/>
        <edge id="305214684" sampledSeconds="3472.28" traveltime="17.41" overlapTraveltime="19.86" density="0.94" laneDensity="0.47" occupancy="0.22" waitingTime="971.00" timeLoss="1491.10" speed="3.65" speedRelative="0.26" departed="0" arrived="0" entered="175" left="175" laneChangedFrom="12" laneChangedTo="12"/>
        <edge id="305214685" sampledSeconds="138.48" traveltime="0.04" overlapTraveltime="0.99" density="12.69" laneDensity="6.34" occupancy="0.12" waitingTime="0.00" timeLoss="15.87" speed="5.51" speedRelative="0.40" departed="0" arrived="0" entered="143" left="143" laneChangedFrom="0" laneChangedTo="0"/>
        <edge id="311212628#1" sampledSeconds="114915.24" traveltime="41.83" overlapTraveltime="42.84" density="19.59" laneDensity="9.80" occupancy="4.89" waitingTime="54660.00" timeLoss="68404.53" speed="2.63" speedRelative="0.32" departed="2811" arrived="0" entered="0" left="2811" laneChangedFrom="1222" laneChangedTo="1222"/>
        <edge id="334968130#0" sampledSeconds="27.07" traveltime="0.04" overlapTraveltime="0.99" density="2.48" laneDensity="1.24" occupancy="0.02" waitingTime="0.00" timeLoss="4.63" speed="5.26" speedRelative="0.63" departed="0" arrived="0" entered="28" left="28" laneChangedFrom="0" laneChangedTo="0"/>
        <edge id="334968130#1" sampledSeconds="26.17" traveltime="0.04" overlapTraveltime="0.93" density="2.40" laneDensity="1.20" occupancy="0.02" waitingTime="0.00" timeLoss="3.37" speed="5.56" speedRelative="0.67" departed="0" arrived="0" entered="28" left="28" laneChangedFrom="0" laneChangedTo="0"/>
        <edge id="337277984#6" sampledSeconds="1152173.82" traveltime="904.55" overlapTraveltime="908.19" density="149.85" laneDensity="74.92" occupancy="37.81" waitingTime="1071328.00" timeLoss="1123670.07" speed="0.16" speedRelative="0.02" departed="1393" arrived="0" entered="0" left="1393" laneChangedFrom="829" laneChangedTo="829" teleported="126"/>
        <edge id="370601722#1" sampledSeconds="25005.06" traveltime="19.81" overlapTraveltime="21.10" density="5.19" laneDensity="2.60" occupancy="1.28" waitingTime="3086.00" timeLoss="7859.49" speed="4.42" speedRelative="0.32" departed="1255" arrived="0" entered="0" left="1255" laneChangedFrom="371" laneChangedTo="371"/>
        <edge id="389741416" sampledSeconds="8613.16" traveltime="1.72" overlapTraveltime="3.68" density="63.89" laneDensity="31.94" occupancy="5.54" waitingTime="3035.00" timeLoss="4290.37" speed="2.81" speedRelative="0.20" departed="0" arrived="0" entered="2631" left="2631" laneChangedFrom="19" laneChangedTo="19"/>
        <edge id="389741417#0" sampledSeconds="8857.70" traveltime="1.96" overlapTraveltime="3.67" density="17.32" laneDensity="8.66" occupancy="3.63" waitingTime="453.00" timeLoss="1501.99" speed="4.78" speedRelative="0.34" departed="0" arrived="0" entered="2631" left="2631" laneChangedFrom="196" laneChangedTo="196"/>
        <edge id="389741417#1" sampledSeconds="96700.54" traveltime="35.14" overlapTraveltime="37.81" density="24.23" laneDensity="12.11" occupancy="10.42" waitingTime="34111.00" timeLoss="45510.55" speed="2.17" speedRelative="0.16" departed="0" arrived="0" entered="2631" left="2631" laneChangedFrom="982" laneChangedTo="982"/>
        <edge id="389741418" sampledSeconds="39962.26" traveltime="22.91" overlapTraveltime="25.21" density="18.92" laneDensity="9.46" occupancy="7.48" waitingTime="22340.00" timeLoss="26264.64" speed="1.88" speedRelative="0.14" departed="0" arrived="0" entered="1604" left="1604" laneChangedFrom="322" laneChangedTo="322"/>
        <edge id="389741419" sampledSeconds="112231.44" traveltime="35.60" overlapTraveltime="37.20" density="19.33" laneDensity="9.67" occupancy="6.32" waitingTime="39246.00" timeLoss="55191.24" speed="3.04" speedRelative="0.22" departed="0" arrived="0" entered="3026" left="3026" laneChangedFrom="720" laneChangedTo="720"/>
        <edge id="398531209" sampledSeconds="577.29" traveltime="2.49" overlapTraveltime="3.50" density="4.60" laneDensity="4.60" occupancy="0.87" waitingTime="302.00" timeLoss="372.82" speed="2.11" speedRelative="0.09" departed="0" arrived="0" entered="165" left="165" laneChangedFrom="0" laneChangedTo="0" teleported="1"/>
        <edge id="398532019#0" sampledSeconds="76991.89" traveltime="19.38" overlapTraveltime="20.55" density="12.97" laneDensity="6.48" occupancy="3.80" waitingTime="0.00" timeLoss="7983.00" speed="5.59" speedRelative="0.40" departed="0" arrived="3510" entered="3829" left="319" laneChangedFrom="502" laneChangedTo="502"/>
        <edge id="398532019#1" sampledSeconds="3419.33" traveltime="43.88" overlapTraveltime="47.49" density="0.36" laneDensity="0.18" occupancy="0.24" waitingTime="27.00" timeLoss="420.67" speed="3.91" speedRelative="0.28" departed="0" arrived="0" entered="72" left="72" laneChangedFrom="0" laneChangedTo="0"/>
        <edge id="398532019#2" sampledSeconds="4407.05" traveltime="60.68" overlapTraveltime="65.96" density="0.53" laneDensity="0.27" occupancy="0.36" waitingTime="9.00" timeLoss="493.92" speed="2.50" speedRelative="0.18" departed="0" arrived="72" entered="72" left="0" laneChangedFrom="0" laneChangedTo="0"/>
        <edge id="399285450#0" sampledSeconds="23616.95" traveltime="7.76" overlapTraveltime="8.68" density="10.00" laneDensity="5.00" occupancy="2.31" waitingTime="0.00" timeLoss="2888.13" speed="5.58" speedRelative="0.67" departed="0" arrived="0" entered="2723" left="2723" laneChangedFrom="172" laneChangedTo="172"/>
        <edge id="399285450#1" sampledSeconds="21046.16" traveltime="6.89" overlapTraveltime="7.82" density="9.98" laneDensity="4.99" occupancy="2.30" waitingTime="0.00" timeLoss="2482.65" speed="5.60" speedRelative="0.67" departed="0" arrived="421" entered="2723" left="2302" laneChangedFrom="60" laneChangedTo="60"/>
        <edge id="399285450#2" sampledSeconds="72880.26" traveltime="54.00" overlapTraveltime="54.89" density="4.31" laneDensity="2.15" occupancy="1.10" waitingTime="0.00" timeLoss="7101.56" speed="5.74" speedRelative="0.69" departed="0" arrived="1338" entered="1338" left="0" laneChangedFrom="233" laneChangedTo="233"/>
        <edge id="399285452#2" sampledSeconds="3098.53" traveltime="7.24" overlapTraveltime="8.14" density="1.46" laneDensity="0.73" occupancy="0.34" waitingTime="3.00" timeLoss="485.80" speed="5.40" speedRelative="0.65" departed="170" arrived="0" entered="231" left="401" laneChangedFrom="10" laneChangedTo="10"/>
        <edge id="399285452#3" sampledSeconds="23529.67" traveltime="24.10" overlapTraveltime="25.18" density="10.38" laneDensity="5.19" occupancy="2.61" waitingTime="12765.00" timeLoss="16630.92" speed="1.86" speedRelative="0.22" departed="794" arrived="0" entered="231" left="1025" laneChangedFrom="329" laneChangedTo="329"/>
        <edge id="410645794" sampledSeconds="49440.91" traveltime="16.71" overlapTraveltime="17.57" density="9.35" laneDensity="9.35" occupancy="4.56" waitingTime="0.00" timeLoss="5290.46" speed="5.80" speedRelative="0.42" departed="0" arrived="2878" entered="2878" left="0" laneChangedFrom="0" laneChangedTo="0"/>
        <edge id="416777760#4" sampledSeconds="911.56" traveltime="16.95" overlapTraveltime="19.90" density="0.18" laneDensity="0.18" occupancy="0.37" waitingTime="0.00" timeLoss="174.22" speed="5.66" speedRelative="0.81" departed="57" arrived="0" entered="0" left="57" laneChangedFrom="0" laneChangedTo="0"/>
        <edge id="416777760#5" sampledSeconds="440.38" traveltime="3.90" overlapTraveltime="7.73" density="0.30" laneDensity="0.30" occupancy="0.38" waitingTime="16.00" timeLoss="41.54" speed="6.34" speedRelative="0.91" departed="0" arrived="0" entered="57" left="57" laneChangedFrom="0" laneChangedTo="0"/>
        <edge id="42141326#0" sampledSeconds="32609.50" traveltime="10.30" overlapTraveltime="11.16" density="9.99" laneDensity="4.99" occupancy="2.38" waitingTime="0.00" timeLoss="3423.33" speed="5.81" speedRelative="0.70" departed="0" arrived="3027" entered="3027" left="0" laneChangedFrom="87" laneChangedTo="87"/>
        <edge id="42143918#12" sampledSeconds="425191.34" traveltime="33.78" overlapTraveltime="34.70" density="93.19" laneDensity="46.60" occupancy="23.72" waitingTime="177969.00" timeLoss="255110.65" speed="2.56" speedRelative="0.31" departed="13028" arrived="0" entered="0" left="13028" laneChangedFrom="4290" laneChangedTo="4290"/>
        <edge id="42492699#4" sampledSeconds="6290.14" traveltime="15.50" overlapTraveltime="16.95" density="2.17" laneDensity="1.09" occupancy="0.52" waitingTime="1634.00" timeLoss="2992.81" speed="3.43" speedRelative="0.41" departed="407" arrived="0" entered="0" left="407" laneChangedFrom="157" laneChangedTo="157"/>
        <edge id="427421017#1" sampledSeconds="1121.17" traveltime="16.12" overlapTraveltime="19.67" density="0.18" laneDensity="0.18" occupancy="0.33" waitingTime="19.00" timeLoss="84.47" speed="6.85" speedRelative="0.98" departed="0" arrived="0" entered="57" left="57" laneChangedFrom="0" laneChangedTo="0"/>
        <edge id="427421017#2" sampledSeconds="202.95" traveltime="0.37" overlapTraveltime="3.56" density="18.59" laneDensity="18.59" occupancy="0.35" waitingTime="19.00" timeLoss="36.90" speed="6.24" speedRelative="0.45" departed="0" arrived="0" entered="57" left="57" laneChangedFrom="0" laneChangedTo="0"/>
        <edge id="427421017#3" sampledSeconds="410.79" traveltime="4.06" overlapTraveltime="7.21" density="0.27" laneDensity="0.27" occupancy="0.33" waitingTime="0.00" timeLoss="0.63" speed="6.99" speedRelative="1.00" departed="0" arrived="0" entered="57" left="57" laneChangedFrom="0" laneChangedTo="0"/>
        <edge id="427421017#4" sampledSeconds="802.88" traveltime="13.55" overlapTraveltime="16.70" density="0.16" laneDensity="0.16" occupancy="0.30" waitingTime="0.00" timeLoss="0.00" speed="7.00" speedRelative="1.00" departed="0" arrived="57" entered="57" left="0" laneChangedFrom="0" laneChangedTo="0"/>
        <edge id="45421575#2" sampledSeconds="315946.60" traveltime="60.18" overlapTraveltime="73.16" density="54.04" laneDensity="27.02" occupancy="12.65" waitingTime="202003.00" timeLoss="239259.94" speed="1.54" speedRelative="0.11" departed="4540" arrived="0" entered="0" left="4540" laneChangedFrom="2458" laneChangedTo="2458" teleported="3"/>
        <edge id="45421575#3" sampledSeconds="7310.53" traveltime="0.51" overlapTraveltime="2.40" density="266.67" laneDensity="133.33" occupancy="6.47" waitingTime="2074.00" timeLoss="3280.12" speed="3.33" speedRelative="0.24" departed="0" arrived="0" entered="4540" left="4539" laneChangedFrom="10" laneChangedTo="10" teleported="5"/>
        <edge id="45421576#0" sampledSeconds="9503.24" traveltime="14.34" overlapTraveltime="15.23" density="2.11" laneDensity="1.05" occupancy="0.52" waitingTime="0.00" timeLoss="928.73" speed="5.77" speedRelative="0.42" departed="0" arrived="641" entered="641" left="0" laneChangedFrom="5" laneChangedTo="5"/>
        <edge id="47861233" sampledSeconds="44710.79" traveltime="14.83" overlapTraveltime="16.50" density="10.85" laneDensity="5.43" occupancy="3.69" waitingTime="108.00" timeLoss="6445.31" speed="5.04" speedRelative="0.36" departed="0" arrived="0" entered="2737" left="2737" laneChangedFrom="753" laneChangedTo="753"/>
        <edge id="47861236" sampledSeconds="18474.88" traveltime="5.06" overlapTraveltime="6.72" density="13.38" laneDensity="6.69" occupancy="3.80" waitingTime="33.00" timeLoss="2888.89" speed="4.93" speedRelative="0.35" departed="0" arrived="0" entered="2832" left="2832" laneChangedFrom="158" laneChangedTo="158"/>
        <edge id="47861237" sampledSeconds="15381.52" traveltime="7.76" overlapTraveltime="9.98" density="8.26" laneDensity="4.13" occupancy="3.21" waitingTime="1330.00" timeLoss="2994.38" speed="4.41" speedRelative="0.32" departed="0" arrived="0" entered="1604" left="1604" laneChangedFrom="148" laneChangedTo="148"/>
        <edge id="48202921" sampledSeconds="154188.35" traveltime="39.58" overlapTraveltime="41.07" density="35.01" laneDensity="17.50" occupancy="10.76" waitingTime="78933.00" timeLoss="100218.35" speed="2.12" speedRelative="0.15" departed="0" arrived="0" entered="3762" left="3762" laneChangedFrom="700" laneChangedTo="700"/>
        <edge id="48202922" sampledSeconds="270510.39" traveltime="50.64" overlapTraveltime="52.39" density="46.02" laneDensity="23.01" occupancy="15.49" waitingTime="117128.00" timeLoss="159911.96" speed="2.19" speedRelative="0.16" departed="0" arrived="0" entered="5205" left="5205" laneChangedFrom="4047" laneChangedTo="4047"/>
        <edge id="48202923" sampledSeconds="94708.73" traveltime="41.71" overlapTraveltime="43.75" density="19.13" laneDensity="9.56" occupancy="6.90" waitingTime="47686.00" timeLoss="58211.48" speed="2.25" speedRelative="0.16" departed="0" arrived="0" entered="2176" left="2176" laneChangedFrom="1233" laneChangedTo="1233"/>
        <edge id="48202925#0" sampledSeconds="121.92" traveltime="0.58" overlapTraveltime="1.54" density="0.67" laneDensity="0.34" occupancy="0.07" waitingTime="0.00" timeLoss="12.43" speed="5.61" speedRelative="0.20" departed="0" arrived="21" entered="88" left="67" laneChangedFrom="1" laneChangedTo="1"/>
        <edge id="48202925#1" sampledSeconds="38675.18" traveltime="28.19" overlapTraveltime="29.40" density="9.10" laneDensity="4.55" occupancy="2.24" waitingTime="15720.00" timeLoss="21915.51" speed="2.82" speedRelative="0.10" departed="1331" arrived="0" entered="67" left="1398" laneChangedFrom="549" laneChangedTo="549"/>
        <edge id="48202929#0" sampledSeconds="125295.09" traveltime="29.13" overlapTraveltime="38.06" density="24.47" laneDensity="12.23" occupancy="7.36" waitingTime="54497.00" timeLoss="70194.95" speed="2.65" speedRelative="0.19" departed="0" arrived="0" entered="3316" left="3316" laneChangedFrom="2273" laneChangedTo="2277"/>
        <edge id="48202929#1" sampledSeconds="5452.62" traveltime="0.06" overlapTraveltime="2.16" density="266.67" laneDensity="133.33" occupancy="4.84" waitingTime="128.74" timeLoss="1576.72" speed="4.00" speedRelative="0.29" departed="0" arrived="0" entered="3316" left="3316" laneChangedFrom="0" laneChangedTo="0"/>
        <edge id="48202930" sampledSeconds="68630.35" traveltime="36.56" overlapTraveltime="38.85" density="12.54" laneDensity="6.27" occupancy="5.35" waitingTime="15992.00" timeLoss="24922.26" speed="2.81" speedRelative="0.34" departed="431" arrived="0" entered="1419" left="1850" laneChangedFrom="881" laneChangedTo="881"/>
        <edge id="48202933" sampledSeconds="28078.68" traveltime="12.68" overlapTraveltime="13.61" density="7.30" laneDensity="3.65" occupancy="1.78" waitingTime="561.00" timeLoss="3689.14" speed="5.56" speedRelative="0.40" departed="0" arrived="0" entered="2103" left="2103" laneChangedFrom="881" laneChangedTo="881"/>
        <edge id="48500734#1" sampledSeconds="1879.28" traveltime="0.04" overlapTraveltime="0.99" density="172.15" laneDensity="86.08" occupancy="1.66" waitingTime="36.00" timeLoss="259.72" speed="5.45" speedRelative="0.20" departed="0" arrived="0" entered="1960" left="1960" laneChangedFrom="21" laneChangedTo="21"/>
        <edge id="48500734#10" sampledSeconds="112.77" traveltime="0.04" overlapTraveltime="0.96" density="10.33" laneDensity="5.17" occupancy="0.10" waitingTime="0.00" timeLoss="10.96" speed="5.68" speedRelative="0.20" departed="0" arrived="0" entered="120" left="120" laneChangedFrom="0" laneChangedTo="0"/>
        <edge id="48500734#11" sampledSeconds="185.51" traveltime="0.17" overlapTraveltime="1.07" density="4.14" laneDensity="2.07" occupancy="0.15" waitingTime="4.00" timeLoss="23.07" speed="5.58" speedRelative="0.20" departed="0" arrived="0" entered="175" left="175" laneChangedFrom="1" laneChangedTo="1"/>
        <edge id="48500734#13" sampledSeconds="4722.91" traveltime="1.50" overlapTraveltime="2.43" density="10.57" laneDensity="5.28" occupancy="1.75" waitingTime="117.00" timeLoss="651.76" speed="5.50" speedRelative="0.20" departed="0" arrived="143" entered="2103" left="1960" laneChangedFrom="487" laneChangedTo="487"/>
        <edge id="48500734#2" sampledSeconds="2318.57" traveltime="0.06" overlapTraveltime="0.99" density="212.39" laneDensity="106.20" occupancy="2.04" waitingTime="54.00" timeLoss="320.45" speed="5.47" speedRelative="0.20" departed="0" arrived="33" entered="2417" left="2384" laneChangedFrom="45" laneChangedTo="45"/>
        <edge id="48500734#3" sampledSeconds="1011.50" traveltime="0.14" overlapTraveltime="1.08" density="22.60" laneDensity="11.30" occupancy="0.80" waitingTime="22.00" timeLoss="123.19" speed="5.58" speedRelative="0.20" departed="0" arrived="0" entered="965" left="965" laneChangedFrom="46" laneChangedTo="46"/>
        <edge id="48500734#4" sampledSeconds="848.81" traveltime="0.03" overlapTraveltime="0.95" density="77.76" laneDensity="38.88" occupancy="0.75" waitingTime="1.00" timeLoss="86.14" speed="5.69" speedRelative="0.20" departed="0" arrived="0" entered="965" left="965" laneChangedFrom="8" laneChangedTo="8"/>
        <edge id="48500734#5" sampledSeconds="906.88" traveltime="0.04" overlapTraveltime="0.96" density="83.08" laneDensity="41.54" occupancy="0.80" waitingTime="4.00" timeLoss="100.50" speed="5.64" speedRelative="0.20" departed="0" arrived="0" entered="965" left="965" laneChangedFrom="10" laneChangedTo="10"/>
        <edge id="48500734#6" sampledSeconds="372.09" traveltime="0.07" overlapTraveltime="1.17" density="17.48" laneDensity="8.74" occupancy="0.31" waitingTime="57.00" timeLoss="95.79" speed="4.73" speedRelative="0.17" departed="0" arrived="0" entered="324" left="324" laneChangedFrom="10" laneChangedTo="10"/>
        <edge id="48500734#7" sampledSeconds="324.57" traveltime="0.12" overlapTraveltime="1.03" density="8.49" laneDensity="4.25" occupancy="0.26" waitingTime="0.00" timeLoss="34.11" speed="5.70" speedRelative="0.21" departed="0" arrived="0" entered="324" left="324" laneChangedFrom="10" laneChangedTo="10"/>
        <edge id="48500734#8" sampledSeconds="112.24" traveltime="0.03" overlapTraveltime="0.96" density="10.28" laneDensity="5.14" occupancy="0.10" waitingTime="0.00" timeLoss="10.36" speed="5.71" speedRelative="0.21" departed="0" arrived="0" entered="120" left="120" laneChangedFrom="0" laneChangedTo="0"/>
        <edge id="48500734#9" sampledSeconds="119.53" traveltime="0.08" overlapTraveltime="1.02" density="4.98" laneDensity="2.49" occupancy="0.10" waitingTime="0.00" timeLoss="13.53" speed="5.58" speedRelative="0.20" departed="0" arrived="0" entered="120" left="120" laneChangedFrom="0" laneChangedTo="0"/>
        <edge id="48501815#0" sampledSeconds="1446.39" traveltime="6.21" overlapTraveltime="7.10" density="0.74" laneDensity="0.37" occupancy="0.16" waitingTime="0.00" timeLoss="143.13" speed="5.80" speedRelative="0.42" departed="0" arrived="0" entered="204" left="204" laneChangedFrom="0" laneChangedTo="0"/>
        <edge id="48501815#1" sampledSeconds="3974.33" traveltime="18.31" overlapTraveltime="19.48" density="1.64" laneDensity="0.82" occupancy="0.39" waitingTime="1981.00" timeLoss="2404.25" speed="2.54" speedRelative="0.18" departed="0" arrived="0" entered="204" left="204" laneChangedFrom="2" laneChangedTo="2"/>
        <edge id="48501815#2" sampledSeconds="80.68" traveltime="0.04" overlapTraveltime="1.13" density="7.39" laneDensity="3.70" occupancy="0.07" waitingTime="0.00" timeLoss="21.30" speed="4.69" speedRelative="0.34" departed="0" arrived="0" entered="72" left="72" laneChangedFrom="0" laneChangedTo="0"/>
        <edge id="48501815#3" sampledSeconds="61.82" traveltime="0.10" overlapTraveltime="1.40" density="5.66" laneDensity="2.83" occupancy="0.05" waitingTime="0.00" timeLoss="25.82" speed="3.70" speedRelative="0.27" departed="0" arrived="0" entered="44" left="44" laneChangedFrom="2" laneChangedTo="2"/>
        <edge id="48501815#4" sampledSeconds="1604.95" traveltime="35.16" overlapTraveltime="36.01" density="0.14" laneDensity="0.07" occupancy="0.03" waitingTime="0.00" timeLoss="161.65" speed="5.90" speedRelative="0.42" departed="0" arrived="45" entered="45" left="0" laneChangedFrom="0" laneChangedTo="0"/>