<?xml version="1.0" encoding="UTF-8"?>

<!-- generated on 2024-07-11 18:22:23 by Eclipse SUMO sumo Version v1_19_0+1520-dc4640af2ac
<configuration xmlns:xsi="http://www.w3.org/2001/XMLSchema-instance" xsi:noNamespaceSchemaLocation="http://sumo.dlr.de/xsd/sumoConfiguration.xsd">

    <input>
        <net-file value="avhuaynacapac.net.xml"/>
        <route-files value="rutasJTrrouter40norm.rou.xml"/>
        <additional-files value="dects.add.xml,busstops.add.xml,avhuaynacapac.poly.xml"/>
    </input>

    <output>
        <emission-output value="co2.xml"/>
        <fcd-output value="fcd.xml"/>
        <tripinfo-output value="tripinfo.xml"/>
        <edgedata-output value="edgedata.xml"/>
    </output>

    <time>
        <begin value="0"/>
        <end value="50600"/>
        <step-length value="1"/>
    </time>

    <processing>
        <ignore-route-errors value="true"/>
    </processing>

    <report>
        <verbose value="true"/>
    </report>

    <emissions>
        <device.emissions.probability value="1"/>
    </emissions>

</configuration>
-->

<meandata xmlns:xsi="http://www.w3.org/2001/XMLSchema-instance" xsi:noNamespaceSchemaLocation="http://sumo.dlr.de/xsd/meandata_file.xsd">
    <interval begin="0.00" end="50600.00" id="DEFAULT_EDGEDATA">
        <edge id="-389741416" sampledSeconds="29105.67" traveltime="4.36" overlapTraveltime="5.73" density="232.88" laneDensity="116.44" occupancy="18.38" waitingTime="19203.00" timeLoss="22109.83" speed="1.44" speedRelative="0.10" departed="0" arrived="0" entered="5200" left="5106" laneChangedFrom="114" laneChangedTo="114"/>
        <edge id="-389741417#0" sampledSeconds="58574.93" traveltime="13.94" overlapTraveltime="16.05" density="122.63" laneDensity="61.31" occupancy="25.97" waitingTime="42511.00" timeLoss="49245.72" speed="0.98" speedRelative="0.07" departed="0" arrived="0" entered="3778" left="3775" laneChangedFrom="269" laneChangedTo="269"/>
        <edge id="-389741417#1" sampledSeconds="172710.64" traveltime="44.01" overlapTraveltime="46.50" density="46.44" laneDensity="23.22" occupancy="15.55" waitingTime="77616.00" timeLoss="111145.76" speed="1.73" speedRelative="0.12" departed="0" arrived="0" entered="3779" left="3756" laneChangedFrom="2886" laneChangedTo="2917" teleported="1"/>
        <edge id="-389741418" sampledSeconds="55794.99" traveltime="11.60" overlapTraveltime="13.67" density="28.51" laneDensity="14.25" occupancy="11.62" waitingTime="3077.00" timeLoss="9039.66" speed="3.49" speedRelative="0.25" departed="0" arrived="0" entered="4395" left="4395" laneChangedFrom="2044" laneChangedTo="2044"/>
        <edge id="-389741419" sampledSeconds="165022.86" traveltime="37.24" overlapTraveltime="38.65" density="30.55" laneDensity="15.28" occupancy="8.92" waitingTime="59402.00" timeLoss="87544.35" speed="2.92" speedRelative="0.21" departed="0" arrived="0" entered="4277" left="4277" laneChangedFrom="518" laneChangedTo="518"/>
        <edge id="-398531209" sampledSeconds="736.10" traveltime="3.32" overlapTraveltime="4.01" density="6.32" laneDensity="6.32" occupancy="1.22" waitingTime="299.00" timeLoss="448.36" speed="1.84" speedRelative="0.08" departed="105" arrived="0" entered="111" left="216" laneChangedFrom="0" laneChangedTo="0"/>
        <edge id="-47861233" sampledSeconds="62214.64" traveltime="37.65" overlapTraveltime="39.69" density="16.30" laneDensity="8.15" occupancy="5.92" waitingTime="33272.00" timeLoss="39778.49" speed="2.09" speedRelative="0.15" departed="0" arrived="0" entered="1575" left="1575" laneChangedFrom="559" laneChangedTo="559"/>
        <edge id="-47861236" sampledSeconds="16692.01" traveltime="4.75" overlapTraveltime="6.18" density="13.04" laneDensity="6.52" occupancy="3.49" waitingTime="0.00" timeLoss="2063.97" speed="5.26" speedRelative="0.38" departed="0" arrived="0" entered="2772" left="2772" laneChangedFrom="96" laneChangedTo="96"/>
        <edge id="-47861237" sampledSeconds="41493.40" traveltime="6.26" overlapTraveltime="7.43" density="24.03" laneDensity="12.01" occupancy="6.08" waitingTime="46.00" timeLoss="5570.18" speed="5.42" speedRelative="0.39" departed="0" arrived="0" entered="5650" left="5650" laneChangedFrom="562" laneChangedTo="562"/>
        <edge id="-48202921" sampledSeconds="191727.03" traveltime="45.01" overlapTraveltime="46.27" density="47.03" laneDensity="23.52" occupancy="13.15" waitingTime="107747.00" timeLoss="134436.72" speed="1.87" speedRelative="0.13" departed="0" arrived="0" entered="4158" left="4148" laneChangedFrom="567" laneChangedTo="567"/>
        <edge id="-48202922" sampledSeconds="85086.41" traveltime="48.97" overlapTraveltime="51.74" density="15.62" laneDensity="7.81" occupancy="7.14" waitingTime="26324.00" timeLoss="34735.26" speed="2.26" speedRelative="0.16" departed="0" arrived="0" entered="1680" left="1680" laneChangedFrom="1262" laneChangedTo="1262"/>
        <edge id="-48202923" sampledSeconds="123850.42" traveltime="32.67" overlapTraveltime="34.09" density="26.99" laneDensity="13.49" occupancy="8.14" waitingTime="51588.00" timeLoss="66750.92" speed="2.85" speedRelative="0.20" departed="0" arrived="0" entered="3643" left="3643" laneChangedFrom="900" laneChangedTo="900"/>
        <edge id="-48202929#0" sampledSeconds="98680.39" traveltime="26.85" overlapTraveltime="28.47" density="20.76" laneDensity="20.76" occupancy="9.96" waitingTime="30396.00" timeLoss="45887.92" speed="3.48" speedRelative="0.25" departed="0" arrived="0" entered="3466" left="3466" laneChangedFrom="0" laneChangedTo="0"/>
        <edge id="-48202929#1" sampledSeconds="3371.72" traveltime="0.06" overlapTraveltime="0.98" density="133.33" laneDensity="133.33" occupancy="6.32" waitingTime="87.82" timeLoss="566.04" speed="5.39" speedRelative="0.39" departed="0" arrived="0" entered="3466" left="3466" laneChangedFrom="0" laneChangedTo="0"/>
        <edge id="-48202930" sampledSeconds="43782.05" traveltime="17.35" overlapTraveltime="18.22" density="8.62" laneDensity="8.62" occupancy="4.22" waitingTime="0.00" timeLoss="4713.22" speed="5.79" speedRelative="0.69" departed="0" arrived="2456" entered="2456" left="0" laneChangedFrom="0" laneChangedTo="0"/>
        <edge id="-48866096" sampledSeconds="274.40" traveltime="19.68" overlapTraveltime="21.11" density="0.06" laneDensity="0.06" occupancy="0.03" waitingTime="30.00" timeLoss="74.54" speed="4.67" speedRelative="0.34" departed="0" arrived="0" entered="13" left="13" laneChangedFrom="0" laneChangedTo="0"/>
        <edge id="-60204530" sampledSeconds="180931.02" traveltime="81.99" overlapTraveltime="83.76" density="10.80" laneDensity="5.40" occupancy="3.84" waitingTime="36661.65" timeLoss="59644.37" speed="4.04" speedRelative="0.29" departed="2208" arrived="0" entered="0" left="2208" laneChangedFrom="2243" laneChangedTo="2243"/>
        <edge id="-604749597" sampledSeconds="65912.85" traveltime="10.56" overlapTraveltime="11.73" density="23.05" laneDensity="11.53" occupancy="6.17" waitingTime="5.00" timeLoss="9687.76" speed="5.33" speedRelative="0.38" departed="0" arrived="0" entered="5650" left="5650" laneChangedFrom="134" laneChangedTo="134"/>
        <edge id="-972644144#0" sampledSeconds="785.27" traveltime="48.66" overlapTraveltime="49.54" density="0.06" laneDensity="0.06" occupancy="0.03" waitingTime="0.00" timeLoss="74.77" speed="5.77" speedRelative="0.42" departed="0" arrived="16" entered="16" left="0" laneChangedFrom="0" laneChangedTo="0"/>
        <edge id="-972644144#1" sampledSeconds="174.01" traveltime="12.32" overlapTraveltime="13.39" density="0.05" laneDensity="0.05" occupancy="0.02" waitingTime="0.00" timeLoss="20.98" speed="5.69" speedRelative="0.41" departed="0" arrived="0" entered="13" left="13" laneChangedFrom="0" laneChangedTo="0"/>
        <edge id="1023790814" sampledSeconds="1445.98" traveltime="21.35" overlapTraveltime="25.37" density="0.29" laneDensity="0.29" occupancy="0.56" waitingTime="393.00" timeLoss="471.69" speed="4.72" speedRelative="0.67" departed="0" arrived="0" entered="57" left="57" laneChangedFrom="0" laneChangedTo="0"/>
        <edge id="118664583#0" sampledSeconds="28685.61" traveltime="19.53" overlapTraveltime="20.82" density="5.71" laneDensity="2.85" occupancy="1.84" waitingTime="24.00" timeLoss="2891.57" speed="5.09" speedRelative="0.23" departed="0" arrived="1329" entered="1421" left="90" laneChangedFrom="239" laneChangedTo="239"/>
        <edge id="118664583#1" sampledSeconds="4716.40" traveltime="48.92" overlapTraveltime="52.40" density="0.47" laneDensity="0.24" occupancy="0.31" waitingTime="55.00" timeLoss="585.18" speed="4.04" speedRelative="0.18" departed="0" arrived="0" entered="90" left="90" laneChangedFrom="0" laneChangedTo="0"/>
        <edge id="118664583#2" sampledSeconds="3421.52" traveltime="37.52" overlapTraveltime="40.93" density="0.44" laneDensity="0.22" occupancy="0.29" waitingTime="0.00" timeLoss="377.58" speed="4.10" speedRelative="0.18" departed="0" arrived="90" entered="90" left="0" laneChangedFrom="0" laneChangedTo="0"/>
        <edge id="285931678" sampledSeconds="3023.93" traveltime="17.33" overlapTraveltime="18.22" density="0.60" laneDensity="0.60" occupancy="0.30" waitingTime="0.00" timeLoss="300.49" speed="5.78" speedRelative="0.69" departed="0" arrived="170" entered="170" left="0" laneChangedFrom="0" laneChangedTo="0"/>
        <edge id="300069416#0" sampledSeconds="164206.41" traveltime="19.96" overlapTraveltime="20.82" density="28.02" laneDensity="14.01" occupancy="6.88" waitingTime="0.00" timeLoss="17316.13" speed="5.81" speedRelative="0.70" departed="0" arrived="8036" entered="8036" left="0" laneChangedFrom="1587" laneChangedTo="1587"/>
        <edge id="303057278" sampledSeconds="3114.32" traveltime="1.31" overlapTraveltime="2.21" density="8.17" laneDensity="4.09" occupancy="1.25" waitingTime="0.00" timeLoss="313.06" speed="5.74" speedRelative="0.41" departed="0" arrived="0" entered="1419" left="1419" laneChangedFrom="143" laneChangedTo="143"/>
        <edge id="305214684" sampledSeconds="3460.00" traveltime="17.67" overlapTraveltime="19.79" density="1.01" laneDensity="0.51" occupancy="0.24" waitingTime="959.00" timeLoss="1478.52" speed="3.67" speedRelative="0.26" departed="0" arrived="0" entered="175" left="175" laneChangedFrom="12" laneChangedTo="12"/>
        <edge id="305214685" sampledSeconds="180.31" traveltime="0.32" overlapTraveltime="1.39" density="17.82" laneDensity="8.91" occupancy="0.16" waitingTime="41.00" timeLoss="57.54" speed="4.23" speedRelative="0.30" departed="0" arrived="0" entered="143" left="143" laneChangedFrom="0" laneChangedTo="0"/>
        <edge id="311212628#1" sampledSeconds="114816.74" traveltime="41.80" overlapTraveltime="42.81" density="21.12" laneDensity="10.56" occupancy="5.27" waitingTime="54565.00" timeLoss="68306.72" speed="2.63" speedRelative="0.32" departed="2811" arrived="0" entered="0" left="2811" laneChangedFrom="1244" laneChangedTo="1244"/>
        <edge id="334968130#0" sampledSeconds="26.56" traveltime="0.04" overlapTraveltime="0.97" density="2.62" laneDensity="1.31" occupancy="0.03" waitingTime="0.00" timeLoss="4.11" speed="5.36" speedRelative="0.64" departed="0" arrived="0" entered="28" left="28" laneChangedFrom="0" laneChangedTo="0"/>
        <edge id="334968130#1" sampledSeconds="25.91" traveltime="0.04" overlapTraveltime="0.93" density="2.56" laneDensity="1.28" occupancy="0.02" waitingTime="0.00" timeLoss="3.17" speed="5.62" speedRelative="0.67" departed="0" arrived="0" entered="28" left="28" laneChangedFrom="0" laneChangedTo="0"/>
        <edge id="337277984#6" sampledSeconds="1137807.83" traveltime="964.52" overlapTraveltime="968.65" density="159.62" laneDensity="79.81" occupancy="40.19" waitingTime="1061449.00" timeLoss="1111417.57" speed="0.15" speedRelative="0.02" departed="1323" arrived="0" entered="0" left="1297" laneChangedFrom="729" laneChangedTo="729" teleported="128"/>
        <edge id="370601722#1" sampledSeconds="25060.90" traveltime="19.86" overlapTraveltime="21.14" density="5.61" laneDensity="2.81" occupancy="1.39" waitingTime="3150.00" timeLoss="7915.07" speed="4.41" speedRelative="0.32" departed="1255" arrived="0" entered="0" left="1255" laneChangedFrom="360" laneChangedTo="360"/>
        <edge id="389741416" sampledSeconds="10123.30" traveltime="2.27" overlapTraveltime="4.55" density="81.00" laneDensity="40.50" occupancy="6.94" waitingTime="4430.00" timeLoss="5832.95" speed="2.39" speedRelative="0.17" departed="0" arrived="0" entered="2631" left="2631" laneChangedFrom="17" laneChangedTo="17"/>
        <edge id="389741417#0" sampledSeconds="9063.69" traveltime="2.07" overlapTraveltime="3.72" density="19.12" laneDensity="9.56" occupancy="4.04" waitingTime="694.00" timeLoss="1751.31" speed="4.67" speedRelative="0.34" departed="0" arrived="0" entered="2631" left="2631" laneChangedFrom="221" laneChangedTo="221"/>
        <edge id="389741417#1" sampledSeconds="104379.10" traveltime="38.06" overlapTraveltime="41.01" density="28.21" laneDensity="14.11" occupancy="12.70" waitingTime="35918.00" timeLoss="47540.25" speed="2.01" speedRelative="0.14" departed="0" arrived="0" entered="2631" left="2631" laneChangedFrom="1074" laneChangedTo="1074"/>
        <edge id="389741418" sampledSeconds="42995.80" traveltime="24.85" overlapTraveltime="27.31" density="21.96" laneDensity="10.98" occupancy="9.02" waitingTime="25294.00" timeLoss="29423.94" speed="1.75" speedRelative="0.13" departed="0" arrived="0" entered="1601" left="1601" laneChangedFrom="422" laneChangedTo="422"/>
        <edge id="389741419" sampledSeconds="112658.62" traveltime="36.00" overlapTraveltime="37.60" density="20.93" laneDensity="10.47" occupancy="6.83" waitingTime="40106.00" timeLoss="56208.05" speed="3.01" speedRelative="0.22" departed="0" arrived="0" entered="3005" left="3004" laneChangedFrom="777" laneChangedTo="777"/>
        <edge id="398531209" sampledSeconds="590.04" traveltime="2.54" overlapTraveltime="3.57" density="5.07" laneDensity="5.07" occupancy="0.96" waitingTime="305.00" timeLoss="385.33" speed="2.06" speedRelative="0.09" departed="0" arrived="0" entered="165" left="165" laneChangedFrom="0" laneChangedTo="0" teleported="1"/>
        <edge id="398532019#0" sampledSeconds="76084.26" traveltime="19.34" overlapTraveltime="20.51" density="13.83" laneDensity="6.91" occupancy="4.04" waitingTime="0.00" timeLoss="7847.82" speed="5.61" speedRelative="0.40" departed="0" arrived="3472" entered="3791" left="319" laneChangedFrom="501" laneChangedTo="501"/>
        <edge id="398532019#1" sampledSeconds="3325.91" traveltime="42.71" overlapTraveltime="46.19" density="0.38" laneDensity="0.19" occupancy="0.25" waitingTime="15.00" timeLoss="386.57" speed="4.02" speedRelative="0.29" departed="0" arrived="0" entered="72" left="72" laneChangedFrom="0" laneChangedTo="0"/>
        <edge id="398532019#2" sampledSeconds="5793.61" traveltime="79.97" overlapTraveltime="86.77" density="0.76" laneDensity="0.38" occupancy="0.52" waitingTime="15.00" timeLoss="491.05" speed="1.90" speedRelative="0.14" departed="0" arrived="72" entered="72" left="0" laneChangedFrom="0" laneChangedTo="0"/>
        <edge id="399285450#0" sampledSeconds="23602.49" traveltime="7.76" overlapTraveltime="8.68" density="10.78" laneDensity="5.39" occupancy="2.49" waitingTime="0.00" timeLoss="2873.67" speed="5.59" speedRelative="0.67" departed="0" arrived="0" entered="2723" left="2723" laneChangedFrom="178" laneChangedTo="178"/>
        <edge id="399285450#1" sampledSeconds="21048.54" traveltime="6.89" overlapTraveltime="7.82" density="10.77" laneDensity="5.39" occupancy="2.48" waitingTime="0.00" timeLoss="2485.11" speed="5.60" speedRelative="0.67" departed="0" arrived="421" entered="2723" left="2302" laneChangedFrom="71" laneChangedTo="71"/>
        <edge id="399285450#2" sampledSeconds="72907.67" traveltime="54.01" overlapTraveltime="54.91" density="4.65" laneDensity="2.32" occupancy="1.19" waitingTime="0.00" timeLoss="7122.28" speed="5.74" speedRelative="0.69" departed="0" arrived="1338" entered="1338" left="0" laneChangedFrom="240" laneChangedTo="240"/>
        <edge id="399285452#2" sampledSeconds="3094.35" traveltime="7.23" overlapTraveltime="8.13" density="1.57" laneDensity="0.79" occupancy="0.37" waitingTime="0.00" timeLoss="481.99" speed="5.41" speedRelative="0.65" departed="170" arrived="0" entered="231" left="401" laneChangedFrom="9" laneChangedTo="9"/>
        <edge id="399285452#3" sampledSeconds="23616.74" traveltime="24.20" overlapTraveltime="25.27" density="11.23" laneDensity="5.62" occupancy="2.83" waitingTime="12868.00" timeLoss="16717.71" speed="1.85" speedRelative="0.22" departed="794" arrived="0" entered="231" left="1025" laneChangedFrom="329" laneChangedTo="329"/>
        <edge id="410645794" sampledSeconds="49485.82" traveltime="16.72" overlapTraveltime="17.59" density="10.10" laneDensity="10.10" occupancy="4.92" waitingTime="0.00" timeLoss="5332.67" speed="5.79" speedRelative="0.42" departed="0" arrived="2878" entered="2878" left="0" laneChangedFrom="0" laneChangedTo="0"/>
        <edge id="416777760#4" sampledSeconds="909.12" traveltime="16.93" overlapTraveltime="19.84" density="0.20" laneDensity="0.20" occupancy="0.39" waitingTime="0.00" timeLoss="171.78" speed="5.68" speedRelative="0.81" departed="57" arrived="0" entered="0" left="57" laneChangedFrom="0" laneChangedTo="0"/>
        <edge id="416777760#5" sampledSeconds="411.01" traveltime="3.89" overlapTraveltime="7.21" density="0.30" laneDensity="0.30" occupancy="0.37" waitingTime="0.00" timeLoss="12.18" speed="6.79" speedRelative="0.97" departed="0" arrived="0" entered="57" left="57" laneChangedFrom="0" laneChangedTo="0"/>
        <edge id="42141326#0" sampledSeconds="32465.32" traveltime="10.30" overlapTraveltime="11.17" density="10.73" laneDensity="5.36" occupancy="2.56" waitingTime="0.00" timeLoss="3407.40" speed="5.81" speedRelative="0.70" departed="0" arrived="3013" entered="3013" left="0" laneChangedFrom="85" laneChangedTo="85"/>
        <edge id="42143918#12" sampledSeconds="434465.69" traveltime="34.54" overlapTraveltime="35.46" density="102.72" laneDensity="51.36" occupancy="26.28" waitingTime="185045.00" timeLoss="263575.60" speed="2.50" speedRelative="0.30" departed="13028" arrived="0" entered="0" left="13028" laneChangedFrom="4369" laneChangedTo="4369"/>
        <edge id="42492699#4" sampledSeconds="6065.88" traveltime="14.91" overlapTraveltime="16.34" density="2.26" laneDensity="1.13" occupancy="0.54" waitingTime="1429.00" timeLoss="2768.51" speed="3.55" speedRelative="0.43" departed="407" arrived="0" entered="0" left="407" laneChangedFrom="135" laneChangedTo="135"/>
        <edge id="427421017#1" sampledSeconds="1108.14" traveltime="16.22" overlapTraveltime="19.44" density="0.19" laneDensity="0.19" occupancy="0.36" waitingTime="2.00" timeLoss="70.43" speed="6.93" speedRelative="0.99" departed="0" arrived="0" entered="57" left="57" laneChangedFrom="0" laneChangedTo="0"/>
        <edge id="427421017#2" sampledSeconds="185.76" traveltime="0.06" overlapTraveltime="3.26" density="18.36" laneDensity="18.36" occupancy="0.36" waitingTime="2.00" timeLoss="18.43" speed="6.81" speedRelative="0.49" departed="0" arrived="0" entered="57" left="57" laneChangedFrom="0" laneChangedTo="0"/>
        <edge id="427421017#3" sampledSeconds="410.75" traveltime="4.06" overlapTraveltime="7.21" density="0.29" laneDensity="0.29" occupancy="0.35" waitingTime="0.00" timeLoss="0.59" speed="6.99" speedRelative="1.00" departed="0" arrived="0" entered="57" left="57" laneChangedFrom="0" laneChangedTo="0"/>
        <edge id="427421017#4" sampledSeconds="799.01" traveltime="13.55" overlapTraveltime="16.70" density="0.17" laneDensity="0.17" occupancy="0.32" waitingTime="0.00" timeLoss="0.00" speed="7.00" speedRelative="1.00" departed="0" arrived="57" entered="57" left="0" laneChangedFrom="0" laneChangedTo="0"/>
        <edge id="45421575#2" sampledSeconds="337922.32" traveltime="65.00" overlapTraveltime="78.28" density="62.34" laneDensity="31.17" occupancy="14.80" waitingTime="220223.00" timeLoss="259909.90" speed="1.44" speedRelative="0.10" departed="4540" arrived="0" entered="0" left="4540" laneChangedFrom="2576" laneChangedTo="2576" teleported="1"/>
        <edge id="45421575#3" sampledSeconds="8345.39" traveltime="0.74" overlapTraveltime="3.00" density="266.67" laneDensity="133.33" occupancy="7.98" waitingTime="3135.00" timeLoss="4325.02" speed="2.91" speedRelative="0.21" departed="0" arrived="0" entered="4540" left="4540" laneChangedFrom="10" laneChangedTo="10" teleported="7"/>
        <edge id="45421576#0" sampledSeconds="9482.67" traveltime="14.33" overlapTraveltime="15.23" density="2.27" laneDensity="1.13" occupancy="0.56" waitingTime="0.00" timeLoss="922.59" speed="5.77" speedRelative="0.42" departed="0" arrived="641" entered="641" left="0" laneChangedFrom="5" laneChangedTo="5"/>
        <edge id="47861233" sampledSeconds="44159.27" traveltime="14.66" overlapTraveltime="16.31" density="11.56" laneDensity="5.78" occupancy="3.92" waitingTime="89.00" timeLoss="6100.18" speed="5.10" speedRelative="0.37" departed="0" arrived="0" entered="2735" left="2733" laneChangedFrom="746" laneChangedTo="746"/>
        <edge id="47861236" sampledSeconds="18248.43" traveltime="5.00" overlapTraveltime="6.65" density="14.25" laneDensity="7.13" occupancy="4.05" waitingTime="23.06" timeLoss="2762.16" speed="4.98" speedRelative="0.36" departed="0" arrived="0" entered="2828" left="2828" laneChangedFrom="159" laneChangedTo="159"/>
        <edge id="47861237" sampledSeconds="14925.59" traveltime="7.52" overlapTraveltime="9.66" density="8.64" laneDensity="4.32" occupancy="3.28" waitingTime="1040.00" timeLoss="2650.34" speed="4.54" speedRelative="0.33" departed="0" arrived="0" entered="1601" left="1601" laneChangedFrom="157" laneChangedTo="157"/>
        <edge id="48202921" sampledSeconds="145864.57" traveltime="37.39" overlapTraveltime="38.89" density="35.73" laneDensity="17.86" occupancy="11.08" waitingTime="71483.00" timeLoss="92083.17" speed="2.24" speedRelative="0.16" departed="0" arrived="0" entered="3761" left="3761" laneChangedFrom="716" laneChangedTo="716"/>
        <edge id="48202922" sampledSeconds="280355.98" traveltime="52.61" overlapTraveltime="54.41" density="51.45" laneDensity="25.72" occupancy="17.52" waitingTime="119525.00" timeLoss="163793.15" speed="2.11" speedRelative="0.15" departed="0" arrived="0" entered="5197" left="5197" laneChangedFrom="4801" laneChangedTo="4801"/>
        <edge id="48202923" sampledSeconds="94760.57" traveltime="41.90" overlapTraveltime="43.92" density="20.64" laneDensity="10.32" occupancy="7.36" waitingTime="47622.00" timeLoss="58597.12" speed="2.24" speedRelative="0.16" departed="0" arrived="0" entered="2168" left="2168" laneChangedFrom="1347" laneChangedTo="1347"/>
        <edge id="48202925#0" sampledSeconds="125.68" traveltime="0.60" overlapTraveltime="1.57" density="0.75" laneDensity="0.38" occupancy="0.08" waitingTime="0.00" timeLoss="15.16" speed="5.50" speedRelative="0.20" departed="0" arrived="21" entered="88" left="67" laneChangedFrom="2" laneChangedTo="2"/>
        <edge id="48202925#1" sampledSeconds="38649.55" traveltime="28.18" overlapTraveltime="29.38" density="9.81" laneDensity="4.90" occupancy="2.42" waitingTime="15737.00" timeLoss="21889.35" speed="2.82" speedRelative="0.10" departed="1331" arrived="0" entered="67" left="1398" laneChangedFrom="544" laneChangedTo="544"/>
        <edge id="48202929#0" sampledSeconds="118554.82" traveltime="27.40" overlapTraveltime="35.99" density="24.97" laneDensity="12.49" occupancy="7.40" waitingTime="48720.00" timeLoss="63663.20" speed="2.80" speedRelative="0.20" departed="0" arrived="0" entered="3316" left="3314" laneChangedFrom="2317" laneChangedTo="2321"/>
        <edge id="48202929#1" sampledSeconds="5487.14" traveltime="0.10" overlapTraveltime="2.13" density="266.67" laneDensity="133.33" occupancy="5.18" waitingTime="265.00" timeLoss="1632.42" speed="3.98" speedRelative="0.29" departed="0" arrived="0" entered="3315" left="3315" laneChangedFrom="1" laneChangedTo="1"/>
        <edge id="48202930" sampledSeconds="75542.59" traveltime="40.49" overlapTraveltime="43.03" density="14.89" laneDensity="7.44" occupancy="6.87" waitingTime="16512.00" timeLoss="25496.23" speed="2.55" speedRelative="0.31" departed="431" arrived="0" entered="1419" left="1850" laneChangedFrom="1111" laneChangedTo="1111"/>
        <edge id="48202933" sampledSeconds="27336.12" traveltime="12.33" overlapTraveltime="13.24" density="7.67" laneDensity="3.83" occupancy="1.86" waitingTime="1.00" timeLoss="2935.28" speed="5.71" speedRelative="0.41" departed="0" arrived="0" entered="2103" left="2103" laneChangedFrom="919" laneChangedTo="919"/>
        <edge id="48500734#1" sampledSeconds="1884.65" traveltime="0.04" overlapTraveltime="0.99" density="186.23" laneDensity="93.11" occupancy="1.79" waitingTime="34.00" timeLoss="259.53" speed="5.46" speedRelative="0.20" departed="0" arrived="0" entered="1960" left="1960" laneChangedFrom="18" laneChangedTo="18"/>
        <edge id="48500734#10" sampledSeconds="114.33" traveltime="0.04" overlapTraveltime="0.97" density="11.30" laneDensity="5.65" occupancy="0.11" waitingTime="0.00" timeLoss="12.46" speed="5.60" speedRelative="0.20" departed="0" arrived="0" entered="120" left="120" laneChangedFrom="0" laneChangedTo="0"/>
        <edge id="48500734#11" sampledSeconds="187.55" traveltime="0.18" overlapTraveltime="1.09" density="4.52" laneDensity="2.26" occupancy="0.16" waitingTime="4.00" timeLoss="25.11" speed="5.52" speedRelative="0.20" departed="0" arrived="0" entered="175" left="175" laneChangedFrom="2" laneChangedTo="2"/>
        <edge id="48500734#13" sampledSeconds="4588.84" traveltime="1.44" overlapTraveltime="2.37" density="11.07" laneDensity="5.54" occupancy="1.82" waitingTime="23.00" timeLoss="529.01" speed="5.64" speedRelative="0.20" departed="0" arrived="143" entered="2103" left="1960" laneChangedFrom="496" laneChangedTo="496"/>
        <edge id="48500734#2" sampledSeconds="2271.25" traveltime="0.04" overlapTraveltime="0.97" density="224.43" laneDensity="112.22" occupancy="2.15" waitingTime="13.00" timeLoss="275.47" speed="5.58" speedRelative="0.20" departed="0" arrived="33" entered="2417" left="2384" laneChangedFrom="41" laneChangedTo="41"/>
        <edge id="48500734#3" sampledSeconds="1000.81" traveltime="0.15" overlapTraveltime="1.07" density="24.12" laneDensity="12.06" occupancy="0.85" waitingTime="5.00" timeLoss="110.14" speed="5.65" speedRelative="0.20" departed="0" arrived="0" entered="965" left="965" laneChangedFrom="36" laneChangedTo="36"/>
        <edge id="48500734#4" sampledSeconds="855.31" traveltime="0.03" overlapTraveltime="0.95" density="84.52" laneDensity="42.26" occupancy="0.81" waitingTime="1.00" timeLoss="88.75" speed="5.68" speedRelative="0.20" departed="0" arrived="0" entered="965" left="965" laneChangedFrom="7" laneChangedTo="7"/>
        <edge id="48500734#5" sampledSeconds="903.28" traveltime="0.04" overlapTraveltime="0.96" density="89.26" laneDensity="44.63" occupancy="0.86" waitingTime="1.00" timeLoss="97.16" speed="5.66" speedRelative="0.20" departed="0" arrived="0" entered="965" left="965" laneChangedFrom="10" laneChangedTo="10"/>
        <edge id="48500734#6" sampledSeconds="309.32" traveltime="0.07" overlapTraveltime="0.98" density="15.67" laneDensity="7.84" occupancy="0.28" waitingTime="0.00" timeLoss="31.86" speed="5.71" speedRelative="0.21" departed="0" arrived="0" entered="324" left="324" laneChangedFrom="9" laneChangedTo="9"/>
        <edge id="48500734#7" sampledSeconds="329.61" traveltime="0.12" overlapTraveltime="1.04" density="9.31" laneDensity="4.65" occupancy="0.29" waitingTime="0.00" timeLoss="35.45" speed="5.68" speedRelative="0.20" departed="0" arrived="0" entered="324" left="324" laneChangedFrom="10" laneChangedTo="10"/>
        <edge id="48500734#8" sampledSeconds="118.14" traveltime="0.07" overlapTraveltime="1.00" density="11.67" laneDensity="5.84" occupancy="0.11" waitingTime="4.00" timeLoss="16.27" speed="5.42" speedRelative="0.20" departed="0" arrived="0" entered="120" left="120" laneChangedFrom="0" laneChangedTo="0"/>
        <edge id="48500734#9" sampledSeconds="116.43" traveltime="0.08" overlapTraveltime="1.01" density="5.23" laneDensity="2.61" occupancy="0.11" waitingTime="0.00" timeLoss="11.48" speed="5.67" speedRelative="0.20" departed="0" arrived="0" entered="120" left="120" laneChangedFrom="0" laneChangedTo="0"/>
        <edge id="48501815#0" sampledSeconds="1447.30" traveltime="6.22" overlapTraveltime="7.10" density="0.79" laneDensity="0.40" occupancy="0.18" waitingTime="0.00" timeLoss="144.04" speed="5.79" speedRelative="0.42" departed="0" arrived="0" entered="204" left="204" laneChangedFrom="0" laneChangedTo="0"/>
        <edge id="48501815#1" sampledSeconds="4095.56" traveltime="18.92" overlapTraveltime="20.07" density="1.82" laneDensity="0.91" occupancy="0.44" waitingTime="2092.00" timeLoss="2525.77" speed="2.46" speedRelative="0.18" departed="0" arrived="0" entered="204" left="204" laneChangedFrom="1" laneChangedTo="1"/>
        <edge id="48501815#2" sampledSeconds="79.48" traveltime="0.04" overlapTraveltime="1.11" density="7.85" laneDensity="3.93" occupancy="0.07" waitingTime="0.00" timeLoss="20.09" speed="4.76" speedRelative="0.34" departed="0" arrived="0" entered="72" left="72" laneChangedFrom="0" laneChangedTo="0"/>
        <edge id="48501815#3" sampledSeconds="63.04" traveltime="0.09" overlapTraveltime="1.43" density="6.23" laneDensity="3.11" occupancy="0.06" waitingTime="0.00" timeLoss="27.03" speed="3.63" speedRelative="0.26" departed="0" arrived="0" entered="44" left="44" laneChangedFrom="2" laneChangedTo="2"/>
        <edge id="48501815#4" sampledSeconds="1597.70" traveltime="35.02" overlapTraveltime="35.86" density="0.15" laneDensity="0.08" occupancy="0.04" waitingTime="0.00" timeLoss="155.17" speed="5.92" speedRelative="0.43" departed="0" arrived="45" entered="45" left="0" laneChangedFrom="0" laneChangedTo="0"/>