<?xml version="1.0" encoding="UTF-8"?>

<!-- generated on 2024-07-04 08:34:17 by Eclipse SUMO GUI Version v1_19_0+1520-dc4640af2ac
<configuration xmlns:xsi="http://www.w3.org/2001/XMLSchema-instance" xsi:noNamespaceSchemaLocation="http://sumo.dlr.de/xsd/sumoConfiguration.xsd">

    <input>
        <net-file value="/home/edwin/Documents/Repositorio-EdwinTel2024/ModeladoAvHuaynacapac/huaynacapac.net.xml"/>
        <route-files value="/home/edwin/Documents/Repositorio-EdwinTel2024/ModeladoAvHuaynacapac/mapa.rou.xml"/>
        <additional-files value="/home/edwin/Documents/Repositorio-EdwinTel2024/ModeladoAvHuaynacapac/huaynacapac.poly.xml,/home/edwin/Documents/Repositorio-EdwinTel2024/ModeladoAvHuaynacapac/detectores.add.xml"/>
    </input>

    <output>
        <emission-output value="/home/edwin/Documents/Repositorio-EdwinTel2024/ModeladoAvHuaynacapac/co2.xml"/>
        <fcd-output value="/home/edwin/Documents/Repositorio-EdwinTel2024/ModeladoAvHuaynacapac/fcd.xml"/>
        <tripinfo-output value="/home/edwin/Documents/Repositorio-EdwinTel2024/ModeladoAvHuaynacapac/tripinfo.xml"/>
        <edgedata-output value="/home/edwin/Documents/Repositorio-EdwinTel2024/ModeladoAvHuaynacapac/edgedata.xml"/>
    </output>

    <time>
        <begin value="0"/>
        <end value="3600"/>
        <step-length value="1"/>
    </time>

    <processing>
        <ignore-route-errors value="true"/>
    </processing>

    <emissions>
        <device.emissions.probability value="1"/>
    </emissions>

</configuration>
-->

<meandata xmlns:xsi="http://www.w3.org/2001/XMLSchema-instance" xsi:noNamespaceSchemaLocation="http://sumo.dlr.de/xsd/meandata_file.xsd">
    <interval begin="0.00" end="3600.00" id="DEFAULT_EDGEDATA">
        <edge id="-1023791772" sampledSeconds="4.91" traveltime="0.66" overlapTraveltime="1.92" density="0.35" laneDensity="0.35" occupancy="0.08" waitingTime="0.00" timeLoss="1.46" speed="4.66" speedRelative="0.56" departed="1" arrived="0" entered="2" left="3" laneChangedFrom="0" laneChangedTo="0"/>
        <edge id="-389741416" sampledSeconds="22.87" traveltime="0.32" overlapTraveltime="0.97" density="2.57" laneDensity="1.29" occupancy="0.22" waitingTime="1.00" timeLoss="6.46" speed="7.73" speedRelative="0.56" departed="1" arrived="1" entered="23" left="23" laneChangedFrom="1" laneChangedTo="1"/>
        <edge id="-389741417#0" sampledSeconds="124.06" traveltime="6.80" overlapTraveltime="7.48" density="3.65" laneDensity="1.82" occupancy="0.85" waitingTime="94.00" timeLoss="106.63" speed="1.93" speedRelative="0.14" departed="0" arrived="0" entered="17" left="16" laneChangedFrom="0" laneChangedTo="0"/>
        <edge id="-389741417#1" sampledSeconds="106.74" traveltime="5.90" overlapTraveltime="6.30" density="0.40" laneDensity="0.20" occupancy="0.09" waitingTime="0.00" timeLoss="10.15" speed="12.45" speedRelative="0.90" departed="1" arrived="0" entered="16" left="17" laneChangedFrom="0" laneChangedTo="0"/>
        <edge id="-389741418" sampledSeconds="5.94" traveltime="6.36" overlapTraveltime="6.73" density="0.04" laneDensity="0.02" occupancy="0.01" waitingTime="0.00" timeLoss="3.25" speed="6.49" speedRelative="0.47" departed="1" arrived="0" entered="0" left="1" laneChangedFrom="0" laneChangedTo="0"/>
        <edge id="-389741419" sampledSeconds="324.98" traveltime="15.66" overlapTraveltime="16.28" density="0.85" laneDensity="0.42" occupancy="0.20" waitingTime="130.00" timeLoss="161.56" speed="6.87" speedRelative="0.49" departed="0" arrived="1" entered="20" left="19" laneChangedFrom="2" laneChangedTo="2"/>
        <edge id="-402762621" sampledSeconds="57.34" traveltime="26.48" overlapTraveltime="28.67" density="0.29" laneDensity="0.29" occupancy="0.13" waitingTime="0.00" timeLoss="13.30" speed="2.12" speedRelative="0.76" departed="0" arrived="0" entered="2" left="2" laneChangedFrom="0" laneChangedTo="0"/>
        <edge id="-402762623#0" sampledSeconds="10.22" traveltime="9.91" overlapTraveltime="12.54" density="0.16" laneDensity="0.16" occupancy="0.07" waitingTime="0.00" timeLoss="2.77" speed="1.86" speedRelative="0.67" departed="0" arrived="1" entered="1" left="0" laneChangedFrom="0" laneChangedTo="0"/>
        <edge id="-402762623#1" sampledSeconds="17.24" traveltime="14.71" overlapTraveltime="17.24" density="0.17" laneDensity="0.17" occupancy="0.07" waitingTime="0.00" timeLoss="4.39" speed="1.90" speedRelative="0.68" departed="0" arrived="0" entered="1" left="1" laneChangedFrom="0" laneChangedTo="0"/>
        <edge id="-410645791" sampledSeconds="16.16" traveltime="15.19" overlapTraveltime="16.16" density="0.12" laneDensity="0.12" occupancy="0.06" waitingTime="0.00" timeLoss="2.83" speed="2.56" speedRelative="0.92" departed="0" arrived="0" entered="1" left="1" laneChangedFrom="0" laneChangedTo="0"/>
        <edge id="-410645794" sampledSeconds="12.44" traveltime="12.14" overlapTraveltime="13.06" density="0.03" laneDensity="0.03" occupancy="0.02" waitingTime="0.00" timeLoss="4.27" speed="8.22" speedRelative="0.59" departed="1" arrived="0" entered="0" left="1" laneChangedFrom="0" laneChangedTo="0"/>
        <edge id="-424074247" sampledSeconds="13.63" traveltime="6.86" overlapTraveltime="7.87" density="0.11" laneDensity="0.11" occupancy="0.05" waitingTime="0.00" timeLoss="7.29" speed="4.84" speedRelative="0.35" departed="2" arrived="0" entered="0" left="2" laneChangedFrom="0" laneChangedTo="0"/>
        <edge id="-47861233" sampledSeconds="51.13" traveltime="16.25" overlapTraveltime="17.04" density="0.19" laneDensity="0.09" occupancy="0.05" waitingTime="26.00" timeLoss="32.80" speed="4.72" speedRelative="0.34" departed="0" arrived="0" entered="3" left="3" laneChangedFrom="0" laneChangedTo="0"/>
        <edge id="-47861236" sampledSeconds="10.06" traveltime="2.17" overlapTraveltime="2.58" density="0.11" laneDensity="0.06" occupancy="0.02" waitingTime="0.00" timeLoss="1.70" speed="11.76" speedRelative="0.85" departed="0" arrived="2" entered="4" left="2" laneChangedFrom="0" laneChangedTo="0"/>
        <edge id="-47861237" sampledSeconds="14.53" traveltime="3.25" overlapTraveltime="3.63" density="0.12" laneDensity="0.06" occupancy="0.03" waitingTime="0.00" timeLoss="3.61" speed="10.77" speedRelative="0.78" departed="0" arrived="0" entered="4" left="4" laneChangedFrom="0" laneChangedTo="0"/>
        <edge id="-48202921" sampledSeconds="161.80" traveltime="9.36" overlapTraveltime="10.11" density="0.56" laneDensity="0.28" occupancy="0.13" waitingTime="41.00" timeLoss="59.57" speed="8.46" speedRelative="0.61" departed="0" arrived="1" entered="16" left="15" laneChangedFrom="0" laneChangedTo="0"/>
        <edge id="-48202922" sampledSeconds="214.17" traveltime="26.08" overlapTraveltime="27.08" density="0.55" laneDensity="0.28" occupancy="0.13" waitingTime="120.00" timeLoss="149.59" speed="4.16" speedRelative="0.30" departed="2" arrived="0" entered="6" left="8" laneChangedFrom="10" laneChangedTo="10"/>
        <edge id="-48202923" sampledSeconds="347.78" traveltime="19.57" overlapTraveltime="20.52" density="1.07" laneDensity="0.53" occupancy="0.26" waitingTime="177.00" timeLoss="230.82" speed="4.66" speedRelative="0.34" departed="1" arrived="0" entered="16" left="17" laneChangedFrom="8" laneChangedTo="8"/>
        <edge id="-48202929#0" sampledSeconds="76.46" traveltime="8.07" overlapTraveltime="8.55" density="0.23" laneDensity="0.23" occupancy="0.11" waitingTime="0.00" timeLoss="10.98" speed="11.57" speedRelative="0.83" departed="1" arrived="1" entered="8" left="8" laneChangedFrom="0" laneChangedTo="0"/>
        <edge id="-48202929#1" sampledSeconds="56.10" traveltime="0.04" overlapTraveltime="5.10" density="77.92" laneDensity="77.92" occupancy="1.55" waitingTime="42.00" timeLoss="49.20" speed="1.02" speedRelative="0.07" departed="0" arrived="0" entered="11" left="11" laneChangedFrom="0" laneChangedTo="0"/>
        <edge id="-48202930" sampledSeconds="141.82" traveltime="13.45" overlapTraveltime="14.32" density="0.39" laneDensity="0.39" occupancy="0.19" waitingTime="0.00" timeLoss="18.97" speed="7.36" speedRelative="0.88" departed="2" arrived="0" entered="8" left="10" laneChangedFrom="0" laneChangedTo="0"/>
        <edge id="-604749597" sampledSeconds="17.69" traveltime="4.13" overlapTraveltime="4.49" density="0.09" laneDensity="0.04" occupancy="0.02" waitingTime="0.00" timeLoss="0.81" speed="13.68" speedRelative="0.99" departed="0" arrived="1" entered="4" left="3" laneChangedFrom="0" laneChangedTo="0"/>
        <edge id="-972644144#1" sampledSeconds="5.30" traveltime="4.94" overlapTraveltime="5.30" density="0.02" laneDensity="0.02" occupancy="0.01" waitingTime="0.00" timeLoss="0.27" speed="14.37" speedRelative="1.03" departed="0" arrived="1" entered="1" left="0" laneChangedFrom="0" laneChangedTo="0"/>
        <edge id="1023791771#0" sampledSeconds="33.49" traveltime="6.12" overlapTraveltime="6.70" density="0.19" laneDensity="0.09" occupancy="0.04" waitingTime="0.00" timeLoss="2.71" speed="8.20" speedRelative="0.98" departed="0" arrived="1" entered="5" left="4" laneChangedFrom="0" laneChangedTo="0"/>
        <edge id="1023791771#1" sampledSeconds="123.14" traveltime="3.53" overlapTraveltime="30.78" density="1.40" laneDensity="0.70" occupancy="0.19" waitingTime="97.00" timeLoss="109.78" speed="0.95" speedRelative="0.11" departed="0" arrived="0" entered="4" left="4" laneChangedFrom="0" laneChangedTo="0"/>
        <edge id="1023791771#2" sampledSeconds="5.65" traveltime="0.11" overlapTraveltime="1.41" density="7.84" laneDensity="3.92" occupancy="0.07" waitingTime="0.00" timeLoss="2.64" speed="3.68" speedRelative="0.44" departed="0" arrived="0" entered="4" left="4" laneChangedFrom="0" laneChangedTo="0"/>
        <edge id="1023791771#3" sampledSeconds="19.14" traveltime="8.95" overlapTraveltime="9.57" density="0.08" laneDensity="0.04" occupancy="0.02" waitingTime="0.00" timeLoss="1.49" speed="7.93" speedRelative="0.95" departed="0" arrived="0" entered="2" left="2" laneChangedFrom="0" laneChangedTo="0"/>
        <edge id="1023791771#4" sampledSeconds="56.47" traveltime="26.75" overlapTraveltime="28.24" density="0.60" laneDensity="0.30" occupancy="0.14" waitingTime="42.00" timeLoss="49.21" speed="1.10" speedRelative="0.13" departed="0" arrived="0" entered="2" left="2" laneChangedFrom="0" laneChangedTo="0"/>
        <edge id="1023791772" sampledSeconds="22.17" traveltime="9.90" overlapTraveltime="11.09" density="1.56" laneDensity="1.56" occupancy="0.42" waitingTime="15.00" timeLoss="20.11" speed="0.81" speedRelative="0.10" departed="0" arrived="0" entered="2" left="2" laneChangedFrom="0" laneChangedTo="0"/>
        <edge id="118664583#0" sampledSeconds="72.82" traveltime="8.53" overlapTraveltime="9.18" density="0.20" laneDensity="0.10" occupancy="0.05" waitingTime="0.00" timeLoss="30.61" speed="11.36" speedRelative="0.51" departed="1" arrived="1" entered="7" left="7" laneChangedFrom="1" laneChangedTo="1"/>
        <edge id="118664583#1" sampledSeconds="10.20" traveltime="10.18" overlapTraveltime="10.44" density="0.01" laneDensity="0.01" occupancy="0.00" waitingTime="0.00" timeLoss="0.37" speed="19.41" speedRelative="0.87" departed="0" arrived="1" entered="1" left="0" laneChangedFrom="0" laneChangedTo="0"/>
        <edge id="300069416#0" sampledSeconds="82.40" traveltime="15.72" overlapTraveltime="16.51" density="0.20" laneDensity="0.10" occupancy="0.05" waitingTime="0.00" timeLoss="8.97" speed="7.32" speedRelative="0.88" departed="0" arrived="1" entered="5" left="4" laneChangedFrom="0" laneChangedTo="0"/>
        <edge id="300069416#1" sampledSeconds="6.49" traveltime="0.32" overlapTraveltime="1.30" density="1.09" laneDensity="0.55" occupancy="0.07" waitingTime="0.00" timeLoss="1.63" speed="5.12" speedRelative="0.62" departed="0" arrived="0" entered="5" left="5" laneChangedFrom="1" laneChangedTo="1"/>
        <edge id="300069417#0" sampledSeconds="20.62" traveltime="3.06" overlapTraveltime="3.55" density="0.27" laneDensity="0.27" occupancy="0.11" waitingTime="0.00" timeLoss="6.99" speed="7.27" speedRelative="0.65" departed="1" arrived="0" entered="5" left="6" laneChangedFrom="0" laneChangedTo="0"/>
        <edge id="300069417#1" sampledSeconds="20.22" traveltime="2.90" overlapTraveltime="3.37" density="0.19" laneDensity="0.19" occupancy="0.08" waitingTime="0.00" timeLoss="1.27" speed="10.29" speedRelative="0.93" departed="0" arrived="0" entered="6" left="6" laneChangedFrom="0" laneChangedTo="0"/>
        <edge id="300069417#2" sampledSeconds="42.94" traveltime="5.67" overlapTraveltime="6.21" density="0.22" laneDensity="0.22" occupancy="0.10" waitingTime="0.00" timeLoss="5.85" speed="9.51" speedRelative="0.86" departed="1" arrived="0" entered="6" left="7" laneChangedFrom="0" laneChangedTo="0"/>
        <edge id="303057278" sampledSeconds="22.85" traveltime="0.70" overlapTraveltime="1.20" density="0.84" laneDensity="0.42" occupancy="0.13" waitingTime="0.00" timeLoss="1.81" speed="10.42" speedRelative="0.75" departed="0" arrived="0" entered="19" left="19" laneChangedFrom="0" laneChangedTo="0"/>
        <edge id="305214684" sampledSeconds="67.51" traveltime="16.08" overlapTraveltime="17.18" density="0.28" laneDensity="0.14" occupancy="0.07" waitingTime="33.00" timeLoss="44.61" speed="4.21" speedRelative="0.30" departed="1" arrived="1" entered="3" left="3" laneChangedFrom="1" laneChangedTo="1"/>
        <edge id="311212628#0" sampledSeconds="55.09" traveltime="55.17" overlapTraveltime="55.86" density="0.04" laneDensity="0.02" occupancy="0.01" waitingTime="0.00" timeLoss="7.13" speed="6.58" speedRelative="0.79" departed="1" arrived="0" entered="0" left="1" laneChangedFrom="0" laneChangedTo="0"/>
        <edge id="311212628#1" sampledSeconds="259.33" traveltime="25.16" overlapTraveltime="26.20" density="0.67" laneDensity="0.34" occupancy="0.16" waitingTime="91.00" timeLoss="123.69" speed="4.29" speedRelative="0.52" departed="2" arrived="1" entered="8" left="9" laneChangedFrom="5" laneChangedTo="5"/>
        <edge id="334968130#0" sampledSeconds="0.66" traveltime="0.03" overlapTraveltime="0.87" density="0.92" laneDensity="0.46" occupancy="0.01" waitingTime="0.00" timeLoss="0.20" speed="6.00" speedRelative="0.72" departed="0" arrived="0" entered="1" left="1" laneChangedFrom="0" laneChangedTo="0"/>
        <edge id="334968130#1" sampledSeconds="5.68" traveltime="0.03" overlapTraveltime="1.76" density="7.88" laneDensity="3.94" occupancy="0.08" waitingTime="0.00" timeLoss="3.52" speed="2.95" speedRelative="0.35" departed="3" arrived="1" entered="1" left="3" laneChangedFrom="0" laneChangedTo="0"/>
        <edge id="334968591#1" sampledSeconds="50.51" traveltime="12.08" overlapTraveltime="12.80" density="0.16" laneDensity="0.08" occupancy="0.04" waitingTime="0.00" timeLoss="5.55" speed="7.29" speedRelative="0.88" departed="1" arrived="0" entered="3" left="4" laneChangedFrom="2" laneChangedTo="2"/>
        <edge id="334968591#2" sampledSeconds="4.44" traveltime="0.92" overlapTraveltime="1.55" density="0.17" laneDensity="0.08" occupancy="0.03" waitingTime="0.00" timeLoss="0.33" speed="7.93" speedRelative="0.95" departed="0" arrived="1" entered="3" left="2" laneChangedFrom="0" laneChangedTo="0"/>
        <edge id="334968591#3" sampledSeconds="18.14" traveltime="8.46" overlapTraveltime="9.07" density="0.07" laneDensity="0.04" occupancy="0.02" waitingTime="0.00" timeLoss="1.12" speed="8.09" speedRelative="0.97" departed="0" arrived="0" entered="2" left="2" laneChangedFrom="1" laneChangedTo="1"/>
        <edge id="337277984#0" sampledSeconds="15.21" traveltime="15.30" overlapTraveltime="15.88" density="0.04" laneDensity="0.02" occupancy="0.01" waitingTime="0.00" timeLoss="2.05" speed="7.61" speedRelative="0.91" departed="1" arrived="0" entered="0" left="1" laneChangedFrom="0" laneChangedTo="0"/>
        <edge id="337277984#1" sampledSeconds="14.38" traveltime="13.75" overlapTraveltime="14.38" density="0.04" laneDensity="0.02" occupancy="0.01" waitingTime="0.00" timeLoss="1.03" speed="8.16" speedRelative="0.98" departed="0" arrived="0" entered="1" left="1" laneChangedFrom="0" laneChangedTo="0"/>
        <edge id="337277984#2" sampledSeconds="14.49" traveltime="13.88" overlapTraveltime="14.49" density="0.04" laneDensity="0.02" occupancy="0.01" waitingTime="0.00" timeLoss="1.27" speed="8.03" speedRelative="0.96" departed="0" arrived="0" entered="1" left="1" laneChangedFrom="0" laneChangedTo="0"/>
        <edge id="337277984#3" sampledSeconds="49.35" traveltime="16.27" overlapTraveltime="16.93" density="0.12" laneDensity="0.06" occupancy="0.03" waitingTime="0.00" timeLoss="7.48" speed="7.08" speedRelative="0.85" departed="2" arrived="0" entered="1" left="3" laneChangedFrom="0" laneChangedTo="0"/>
        <edge id="337277984#4" sampledSeconds="85.81" traveltime="16.65" overlapTraveltime="17.45" density="0.20" laneDensity="0.10" occupancy="0.05" waitingTime="0.00" timeLoss="12.31" speed="7.04" speedRelative="0.85" departed="2" arrived="0" entered="3" left="5" laneChangedFrom="0" laneChangedTo="0"/>
        <edge id="337277984#5" sampledSeconds="150.21" traveltime="28.92" overlapTraveltime="30.04" density="0.40" laneDensity="0.20" occupancy="0.10" waitingTime="66.00" timeLoss="83.92" speed="3.63" speedRelative="0.44" departed="0" arrived="0" entered="5" left="5" laneChangedFrom="7" laneChangedTo="7"/>
        <edge id="337277984#6" sampledSeconds="180.36" traveltime="34.99" overlapTraveltime="36.07" density="0.36" laneDensity="0.18" occupancy="0.09" waitingTime="78.00" timeLoss="91.04" speed="4.04" speedRelative="0.49" departed="0" arrived="0" entered="5" left="5" laneChangedFrom="1" laneChangedTo="1"/>
        <edge id="370601722#1" sampledSeconds="44.28" traveltime="8.24" overlapTraveltime="8.87" density="0.14" laneDensity="0.07" occupancy="0.03" waitingTime="0.00" timeLoss="9.21" speed="10.52" speedRelative="0.76" departed="0" arrived="2" entered="5" left="3" laneChangedFrom="0" laneChangedTo="0"/>
        <edge id="389741416" sampledSeconds="114.51" traveltime="4.06" overlapTraveltime="4.58" density="12.88" laneDensity="6.44" occupancy="0.96" waitingTime="89.00" timeLoss="100.64" speed="1.63" speedRelative="0.12" departed="0" arrived="0" entered="25" left="25" laneChangedFrom="0" laneChangedTo="0"/>
        <edge id="389741417#0" sampledSeconds="31.19" traveltime="0.79" overlapTraveltime="1.20" density="0.92" laneDensity="0.46" occupancy="0.15" waitingTime="0.00" timeLoss="3.79" speed="11.99" speedRelative="0.86" departed="0" arrived="0" entered="26" left="26" laneChangedFrom="0" laneChangedTo="0"/>
        <edge id="389741417#1" sampledSeconds="165.28" traveltime="5.75" overlapTraveltime="6.15" density="0.63" laneDensity="0.31" occupancy="0.15" waitingTime="0.00" timeLoss="10.78" speed="12.71" speedRelative="0.91" departed="1" arrived="2" entered="26" left="25" laneChangedFrom="3" laneChangedTo="3"/>
        <edge id="389741418" sampledSeconds="40.83" traveltime="39.39" overlapTraveltime="40.83" density="0.29" laneDensity="0.15" occupancy="0.07" waitingTime="34.00" timeLoss="38.14" speed="1.07" speedRelative="0.08" departed="0" arrived="0" entered="1" left="1" laneChangedFrom="0" laneChangedTo="0"/>
        <edge id="389741419" sampledSeconds="568.68" traveltime="20.18" overlapTraveltime="21.10" density="1.49" laneDensity="0.74" occupancy="0.36" waitingTime="285.00" timeLoss="337.80" speed="5.28" speedRelative="0.38" departed="1" arrived="0" entered="26" left="27" laneChangedFrom="0" laneChangedTo="0"/>
        <edge id="398532019#0" sampledSeconds="53.45" traveltime="9.89" overlapTraveltime="10.69" density="0.14" laneDensity="0.07" occupancy="0.03" waitingTime="0.00" timeLoss="8.92" speed="10.64" speedRelative="0.77" departed="0" arrived="0" entered="5" left="5" laneChangedFrom="4" laneChangedTo="4"/>
        <edge id="398532019#1" sampledSeconds="11.35" traveltime="11.03" overlapTraveltime="11.35" density="0.02" laneDensity="0.01" occupancy="0.00" waitingTime="0.00" timeLoss="0.36" speed="15.58" speedRelative="1.12" departed="0" arrived="1" entered="1" left="0" laneChangedFrom="0" laneChangedTo="0"/>
        <edge id="399285450#0" sampledSeconds="6.52" traveltime="5.98" overlapTraveltime="6.67" density="0.04" laneDensity="0.02" occupancy="0.01" waitingTime="0.00" timeLoss="0.47" speed="7.24" speedRelative="0.87" departed="0" arrived="1" entered="1" left="0" laneChangedFrom="0" laneChangedTo="0"/>
        <edge id="402762623#0" sampledSeconds="22.13" traveltime="8.89" overlapTraveltime="11.06" density="0.34" laneDensity="0.34" occupancy="0.13" waitingTime="0.00" timeLoss="5.26" speed="2.10" speedRelative="0.76" departed="0" arrived="0" entered="2" left="2" laneChangedFrom="0" laneChangedTo="0"/>
        <edge id="402762623#1" sampledSeconds="29.18" traveltime="12.66" overlapTraveltime="15.18" density="0.29" laneDensity="0.29" occupancy="0.12" waitingTime="0.00" timeLoss="6.28" speed="2.16" speedRelative="0.78" departed="0" arrived="1" entered="2" left="1" laneChangedFrom="0" laneChangedTo="0"/>
        <edge id="40668087#0" sampledSeconds="46.86" traveltime="15.01" overlapTraveltime="15.71" density="0.12" laneDensity="0.12" occupancy="0.06" waitingTime="0.00" timeLoss="4.34" speed="7.03" speedRelative="0.84" departed="0" arrived="1" entered="3" left="2" laneChangedFrom="0" laneChangedTo="0"/>
        <edge id="40668087#1" sampledSeconds="39.03" traveltime="18.74" overlapTraveltime="19.51" density="0.09" laneDensity="0.09" occupancy="0.04" waitingTime="0.00" timeLoss="3.69" speed="6.46" speedRelative="0.77" departed="0" arrived="0" entered="2" left="2" laneChangedFrom="0" laneChangedTo="0"/>
        <edge id="40668087#2" sampledSeconds="37.97" traveltime="18.21" overlapTraveltime="19.25" density="0.09" laneDensity="0.09" occupancy="0.04" waitingTime="0.00" timeLoss="5.29" speed="6.14" speedRelative="0.74" departed="0" arrived="1" entered="2" left="1" laneChangedFrom="0" laneChangedTo="0"/>
        <edge id="40668087#3" sampledSeconds="18.19" traveltime="17.44" overlapTraveltime="18.19" density="0.05" laneDensity="0.05" occupancy="0.02" waitingTime="0.00" timeLoss="1.92" speed="6.38" speedRelative="0.77" departed="0" arrived="0" entered="1" left="1" laneChangedFrom="0" laneChangedTo="0"/>
        <edge id="40668087#4" sampledSeconds="17.69" traveltime="16.98" overlapTraveltime="17.69" density="0.04" laneDensity="0.04" occupancy="0.02" waitingTime="0.00" timeLoss="1.07" speed="6.71" speedRelative="0.81" departed="0" arrived="0" entered="1" left="1" laneChangedFrom="0" laneChangedTo="0"/>
        <edge id="40668087#5" sampledSeconds="17.66" traveltime="17.03" overlapTraveltime="17.85" density="0.04" laneDensity="0.04" occupancy="0.02" waitingTime="0.00" timeLoss="1.33" speed="6.60" speedRelative="0.79" departed="0" arrived="1" entered="1" left="0" laneChangedFrom="0" laneChangedTo="0"/>
        <edge id="410645791" sampledSeconds="35.51" traveltime="16.61" overlapTraveltime="18.86" density="0.26" laneDensity="0.26" occupancy="0.12" waitingTime="0.00" timeLoss="6.48" speed="2.31" speedRelative="0.83" departed="1" arrived="0" entered="1" left="2" laneChangedFrom="0" laneChangedTo="0"/>
        <edge id="410645792" sampledSeconds="8.31" traveltime="8.21" overlapTraveltime="10.52" density="0.13" laneDensity="0.13" occupancy="0.05" waitingTime="0.00" timeLoss="1.85" speed="2.20" speedRelative="0.79" departed="0" arrived="1" entered="1" left="0" laneChangedFrom="0" laneChangedTo="0"/>
        <edge id="416775490#0" sampledSeconds="3.49" traveltime="0.02" overlapTraveltime="0.50" density="4.85" laneDensity="4.85" occupancy="0.09" waitingTime="0.00" timeLoss="1.80" speed="10.42" speedRelative="0.47" departed="0" arrived="1" entered="7" left="6" laneChangedFrom="0" laneChangedTo="0"/>
        <edge id="416775490#1" sampledSeconds="4.46" traveltime="0.02" overlapTraveltime="0.65" density="6.19" laneDensity="6.19" occupancy="0.12" waitingTime="0.00" timeLoss="3.04" speed="7.94" speedRelative="0.36" departed="1" arrived="1" entered="6" left="6" laneChangedFrom="0" laneChangedTo="0"/>
        <edge id="42141326#0" sampledSeconds="161.60" traveltime="8.19" overlapTraveltime="8.98" density="0.75" laneDensity="0.38" occupancy="0.17" waitingTime="0.00" timeLoss="16.82" speed="7.22" speedRelative="0.87" departed="0" arrived="0" entered="18" left="18" laneChangedFrom="12" laneChangedTo="12"/>
        <edge id="42141326#1" sampledSeconds="129.54" traveltime="24.86" overlapTraveltime="25.91" density="0.41" laneDensity="0.20" occupancy="0.10" waitingTime="64.00" timeLoss="74.53" speed="3.58" speedRelative="0.43" departed="0" arrived="0" entered="5" left="5" laneChangedFrom="0" laneChangedTo="0"/>
        <edge id="42141326#2" sampledSeconds="51.61" traveltime="12.25" overlapTraveltime="12.90" density="0.15" laneDensity="0.07" occupancy="0.04" waitingTime="0.00" timeLoss="3.98" speed="7.81" speedRelative="0.94" departed="0" arrived="0" entered="4" left="4" laneChangedFrom="1" laneChangedTo="1"/>
        <edge id="42141326#3" sampledSeconds="7.24" traveltime="1.27" overlapTraveltime="1.89" density="0.20" laneDensity="0.10" occupancy="0.03" waitingTime="0.00" timeLoss="0.48" speed="7.90" speedRelative="0.95" departed="0" arrived="1" entered="4" left="3" laneChangedFrom="0" laneChangedTo="0"/>
        <edge id="42141326#4" sampledSeconds="5.00" traveltime="1.03" overlapTraveltime="1.67" density="0.17" laneDensity="0.08" occupancy="0.03" waitingTime="0.00" timeLoss="0.29" speed="7.96" speedRelative="0.96" departed="0" arrived="0" entered="3" left="3" laneChangedFrom="0" laneChangedTo="0"/>
        <edge id="42141326#5" sampledSeconds="41.31" traveltime="13.18" overlapTraveltime="13.85" density="0.11" laneDensity="0.06" occupancy="0.03" waitingTime="0.00" timeLoss="3.35" speed="7.76" speedRelative="0.93" departed="0" arrived="1" entered="3" left="2" laneChangedFrom="0" laneChangedTo="0"/>
        <edge id="42141326#6" sampledSeconds="25.31" traveltime="13.95" overlapTraveltime="14.54" density="0.06" laneDensity="0.03" occupancy="0.02" waitingTime="0.00" timeLoss="1.86" speed="7.88" speedRelative="0.95" departed="0" arrived="1" entered="2" left="0" laneChangedFrom="0" laneChangedTo="0"/>
        <edge id="42143918#1" sampledSeconds="15.46" traveltime="15.51" overlapTraveltime="16.16" density="0.04" laneDensity="0.02" occupancy="0.01" waitingTime="0.00" timeLoss="2.39" speed="7.31" speedRelative="0.88" departed="1" arrived="0" entered="0" left="1" laneChangedFrom="0" laneChangedTo="0"/>
        <edge id="42143918#10" sampledSeconds="36.84" traveltime="11.68" overlapTraveltime="12.28" density="0.11" laneDensity="0.05" occupancy="0.03" waitingTime="0.00" timeLoss="3.40" speed="8.22" speedRelative="0.99" departed="0" arrived="0" entered="3" left="3" laneChangedFrom="1" laneChangedTo="1"/>
        <edge id="42143918#11" sampledSeconds="43.92" traveltime="10.30" overlapTraveltime="10.98" density="0.15" laneDensity="0.07" occupancy="0.04" waitingTime="0.00" timeLoss="3.07" speed="7.91" speedRelative="0.95" departed="0" arrived="0" entered="4" left="4" laneChangedFrom="0" laneChangedTo="0"/>
        <edge id="42143918#12" sampledSeconds="237.82" traveltime="16.03" overlapTraveltime="16.99" density="0.79" laneDensity="0.40" occupancy="0.19" waitingTime="59.00" timeLoss="87.22" speed="5.22" speedRelative="0.63" departed="0" arrived="0" entered="14" left="14" laneChangedFrom="3" laneChangedTo="3"/>
        <edge id="42143918#2" sampledSeconds="22.01" traveltime="20.56" overlapTraveltime="22.01" density="0.06" laneDensity="0.03" occupancy="0.01" waitingTime="5.00" timeLoss="9.75" speed="4.81" speedRelative="0.58" departed="0" arrived="0" entered="1" left="1" laneChangedFrom="0" laneChangedTo="0"/>
        <edge id="42143918#3" sampledSeconds="29.89" traveltime="14.68" overlapTraveltime="15.28" density="0.07" laneDensity="0.04" occupancy="0.02" waitingTime="0.00" timeLoss="4.40" speed="7.72" speedRelative="0.93" departed="1" arrived="0" entered="1" left="2" laneChangedFrom="0" laneChangedTo="0"/>
        <edge id="42143918#4" sampledSeconds="27.65" traveltime="13.23" overlapTraveltime="13.83" density="0.07" laneDensity="0.03" occupancy="0.02" waitingTime="0.00" timeLoss="1.96" speed="8.42" speedRelative="1.01" departed="0" arrived="0" entered="2" left="2" laneChangedFrom="0" laneChangedTo="0"/>
        <edge id="42143918#5" sampledSeconds="28.28" traveltime="13.53" overlapTraveltime="14.14" density="0.07" laneDensity="0.03" occupancy="0.02" waitingTime="0.00" timeLoss="1.96" speed="8.43" speedRelative="1.01" departed="0" arrived="0" entered="2" left="2" laneChangedFrom="0" laneChangedTo="0"/>
        <edge id="42143918#6" sampledSeconds="29.97" traveltime="14.40" overlapTraveltime="14.98" density="0.07" laneDensity="0.03" occupancy="0.02" waitingTime="0.00" timeLoss="2.30" speed="8.36" speedRelative="1.00" departed="0" arrived="0" entered="2" left="2" laneChangedFrom="0" laneChangedTo="0"/>
        <edge id="42143918#7" sampledSeconds="23.82" traveltime="11.34" overlapTraveltime="11.91" density="0.07" laneDensity="0.03" occupancy="0.02" waitingTime="0.00" timeLoss="1.50" speed="8.49" speedRelative="1.02" departed="0" arrived="0" entered="2" left="2" laneChangedFrom="0" laneChangedTo="0"/>
        <edge id="42143918#8" sampledSeconds="2.99" traveltime="0.91" overlapTraveltime="1.49" density="0.10" laneDensity="0.05" occupancy="0.02" waitingTime="0.00" timeLoss="0.14" speed="8.65" speedRelative="1.04" departed="0" arrived="0" entered="2" left="2" laneChangedFrom="0" laneChangedTo="0"/>
        <edge id="42143918#9" sampledSeconds="6.76" traveltime="1.84" overlapTraveltime="2.52" density="0.17" laneDensity="0.09" occupancy="0.03" waitingTime="0.00" timeLoss="2.04" speed="6.32" speedRelative="0.76" departed="1" arrived="0" entered="2" left="3" laneChangedFrom="0" laneChangedTo="0"/>