<?xml version="1.0" encoding="UTF-8"?>

<!-- generated on 2024-07-04 08:23:07 by Eclipse SUMO sumo Version v1_19_0+1520-dc4640af2ac
<configuration xmlns:xsi="http://www.w3.org/2001/XMLSchema-instance" xsi:noNamespaceSchemaLocation="http://sumo.dlr.de/xsd/sumoConfiguration.xsd">

    <input>
        <net-file value="huaynacapac.net.xml"/>
        <route-files value="rutasjtrrouter.rou.xml"/>
        <additional-files value="huaynacapac.poly.xml,detectores.add.xml"/>
    </input>

    <output>
        <emission-output value="co2.xml"/>
        <fcd-output value="fcd.xml"/>
        <tripinfo-output value="tripinfo.xml"/>
        <edgedata-output value="edgedata.xml"/>
    </output>

    <time>
        <begin value="0"/>
        <end value="3600"/>
        <step-length value="1"/>
    </time>

    <processing>
        <ignore-route-errors value="true"/>
    </processing>

    <report>
        <verbose value="true"/>
    </report>

    <emissions>
        <device.emissions.probability value="1"/>
    </emissions>

</configuration>
-->

<meandata xmlns:xsi="http://www.w3.org/2001/XMLSchema-instance" xsi:noNamespaceSchemaLocation="http://sumo.dlr.de/xsd/meandata_file.xsd">
    <interval begin="0.00" end="3600.00" id="DEFAULT_EDGEDATA">
        <edge id="-1023791772" sampledSeconds="10.82" traveltime="0.78" overlapTraveltime="1.80" density="0.76" laneDensity="0.76" occupancy="0.17" waitingTime="0.00" timeLoss="2.53" speed="4.96" speedRelative="0.59" departed="0" arrived="0" entered="6" left="6" laneChangedFrom="0" laneChangedTo="0"/>
        <edge id="-264396528" sampledSeconds="203.78" traveltime="17.49" overlapTraveltime="18.53" density="0.68" laneDensity="0.68" occupancy="0.32" waitingTime="3.00" timeLoss="32.62" speed="4.74" speedRelative="0.85" departed="0" arrived="0" entered="11" left="11" laneChangedFrom="0" laneChangedTo="0"/>
        <edge id="-389741416" sampledSeconds="55.11" traveltime="0.30" overlapTraveltime="0.96" density="6.20" laneDensity="3.10" occupancy="0.52" waitingTime="0.00" timeLoss="8.74" speed="7.79" speedRelative="0.56" departed="0" arrived="2" entered="58" left="56" laneChangedFrom="0" laneChangedTo="0"/>
        <edge id="-389741417#0" sampledSeconds="134.62" traveltime="5.32" overlapTraveltime="5.85" density="3.96" laneDensity="1.98" occupancy="0.91" waitingTime="96.00" timeLoss="110.44" speed="2.47" speedRelative="0.18" departed="0" arrived="0" entered="23" left="23" laneChangedFrom="0" laneChangedTo="0"/>
        <edge id="-389741417#1" sampledSeconds="140.14" traveltime="5.70" overlapTraveltime="6.09" density="0.53" laneDensity="0.26" occupancy="0.12" waitingTime="0.00" timeLoss="8.78" speed="12.88" speedRelative="0.93" departed="0" arrived="0" entered="23" left="23" laneChangedFrom="0" laneChangedTo="0"/>
        <edge id="-389741418" sampledSeconds="1092.73" traveltime="3.74" overlapTraveltime="4.12" density="7.85" laneDensity="3.92" occupancy="1.71" waitingTime="0.00" timeLoss="259.18" speed="10.59" speedRelative="0.76" departed="0" arrived="0" entered="265" left="265" laneChangedFrom="189" laneChangedTo="189"/>
        <edge id="-389741419" sampledSeconds="830.87" traveltime="14.30" overlapTraveltime="14.86" density="2.16" laneDensity="1.08" occupancy="0.52" waitingTime="325.00" timeLoss="381.81" speed="7.52" speedRelative="0.54" departed="0" arrived="0" entered="56" left="55" laneChangedFrom="1" laneChangedTo="1"/>
        <edge id="-402762621" sampledSeconds="24.36" traveltime="22.39" overlapTraveltime="24.36" density="0.12" laneDensity="0.12" occupancy="0.06" waitingTime="0.00" timeLoss="5.31" speed="2.50" speedRelative="0.90" departed="0" arrived="0" entered="1" left="1" laneChangedFrom="0" laneChangedTo="0"/>
        <edge id="-402762623#0" sampledSeconds="9.85" traveltime="7.72" overlapTraveltime="9.85" density="0.15" laneDensity="0.15" occupancy="0.06" waitingTime="0.00" timeLoss="2.55" speed="2.37" speedRelative="0.85" departed="0" arrived="0" entered="1" left="1" laneChangedFrom="0" laneChangedTo="0"/>
        <edge id="-402762623#1" sampledSeconds="12.93" traveltime="10.77" overlapTraveltime="12.93" density="0.13" laneDensity="0.13" occupancy="0.05" waitingTime="0.00" timeLoss="2.66" speed="2.54" speedRelative="0.91" departed="0" arrived="0" entered="1" left="1" laneChangedFrom="0" laneChangedTo="0"/>
        <edge id="-410645790" sampledSeconds="3964.71" traveltime="50.84" overlapTraveltime="52.34" density="10.54" laneDensity="10.54" occupancy="5.08" waitingTime="49.00" timeLoss="1055.79" speed="2.09" speedRelative="0.75" departed="0" arrived="0" entered="76" left="75" laneChangedFrom="0" laneChangedTo="0"/>
        <edge id="-410645791" sampledSeconds="89.79" traveltime="16.48" overlapTraveltime="17.96" density="0.69" laneDensity="0.69" occupancy="0.31" waitingTime="0.00" timeLoss="22.37" speed="2.30" speedRelative="0.83" departed="0" arrived="0" entered="5" left="5" laneChangedFrom="0" laneChangedTo="0"/>
        <edge id="-410645792" sampledSeconds="50.29" traveltime="7.86" overlapTraveltime="10.06" density="0.77" laneDensity="0.77" occupancy="0.30" waitingTime="0.00" timeLoss="9.47" speed="2.30" speedRelative="0.83" departed="0" arrived="0" entered="5" left="5" laneChangedFrom="0" laneChangedTo="0"/>
        <edge id="-410645793" sampledSeconds="60.62" traveltime="9.99" overlapTraveltime="12.12" density="0.73" laneDensity="0.73" occupancy="0.30" waitingTime="0.00" timeLoss="11.27" speed="2.31" speedRelative="0.83" departed="0" arrived="0" entered="5" left="5" laneChangedFrom="0" laneChangedTo="0"/>
        <edge id="-410645794" sampledSeconds="1957.05" traveltime="11.68" overlapTraveltime="12.55" density="5.31" laneDensity="5.31" occupancy="2.43" waitingTime="53.00" timeLoss="690.77" speed="8.56" speedRelative="0.62" departed="0" arrived="0" entered="156" left="156" laneChangedFrom="0" laneChangedTo="0"/>
        <edge id="-424074247" sampledSeconds="55.16" traveltime="5.17" overlapTraveltime="6.13" density="0.46" laneDensity="0.46" occupancy="0.19" waitingTime="0.00" timeLoss="24.89" speed="6.21" speedRelative="0.45" departed="0" arrived="0" entered="9" left="9" laneChangedFrom="0" laneChangedTo="0"/>
        <edge id="-47861233" sampledSeconds="1406.94" traveltime="16.26" overlapTraveltime="17.16" density="5.18" laneDensity="2.59" occupancy="1.25" waitingTime="675.00" timeLoss="934.76" speed="4.69" speedRelative="0.34" departed="0" arrived="0" entered="82" left="82" laneChangedFrom="31" laneChangedTo="31"/>
        <edge id="-47861236" sampledSeconds="511.92" traveltime="2.49" overlapTraveltime="3.13" density="5.62" laneDensity="2.81" occupancy="1.15" waitingTime="0.00" timeLoss="107.88" speed="9.69" speedRelative="0.70" departed="0" arrived="0" entered="164" left="163" laneChangedFrom="3" laneChangedTo="3"/>
        <edge id="-47861237" sampledSeconds="967.19" traveltime="2.75" overlapTraveltime="3.13" density="7.87" laneDensity="3.94" occupancy="1.71" waitingTime="0.00" timeLoss="97.22" speed="12.50" speedRelative="0.90" departed="0" arrived="33" entered="310" left="277" laneChangedFrom="2" laneChangedTo="2"/>
        <edge id="-48202921" sampledSeconds="493.40" traveltime="20.39" overlapTraveltime="21.51" density="1.70" laneDensity="0.85" occupancy="0.41" waitingTime="301.00" timeLoss="343.73" speed="3.98" speedRelative="0.29" departed="0" arrived="0" entered="23" left="22" laneChangedFrom="0" laneChangedTo="0"/>
        <edge id="-48202922" sampledSeconds="1618.14" traveltime="14.76" overlapTraveltime="15.56" density="4.17" laneDensity="2.09" occupancy="1.00" waitingTime="538.00" timeLoss="745.63" speed="7.24" speedRelative="0.52" departed="0" arrived="0" entered="104" left="104" laneChangedFrom="18" laneChangedTo="18"/>
        <edge id="-48202923" sampledSeconds="600.02" traveltime="10.24" overlapTraveltime="10.71" density="1.84" laneDensity="0.92" occupancy="0.44" waitingTime="167.00" timeLoss="214.94" speed="8.93" speedRelative="0.64" departed="0" arrived="0" entered="56" left="56" laneChangedFrom="10" laneChangedTo="10"/>
        <edge id="-48202929#0" sampledSeconds="191.82" traveltime="30.81" overlapTraveltime="31.97" density="0.57" laneDensity="0.57" occupancy="0.28" waitingTime="126.00" timeLoss="146.95" speed="3.09" speedRelative="0.22" departed="0" arrived="0" entered="6" left="6" laneChangedFrom="0" laneChangedTo="0"/>
        <edge id="-48202929#1" sampledSeconds="56.60" traveltime="0.04" overlapTraveltime="5.66" density="78.61" laneDensity="78.61" occupancy="1.56" waitingTime="44.00" timeLoss="49.71" speed="0.92" speedRelative="0.07" departed="0" arrived="0" entered="10" left="10" laneChangedFrom="0" laneChangedTo="0"/>
        <edge id="-48202930" sampledSeconds="29.84" traveltime="14.23" overlapTraveltime="14.92" density="0.08" laneDensity="0.08" occupancy="0.04" waitingTime="0.00" timeLoss="2.84" speed="7.06" speedRelative="0.85" departed="0" arrived="0" entered="2" left="2" laneChangedFrom="0" laneChangedTo="0"/>
        <edge id="-604749597" sampledSeconds="1560.12" traveltime="4.93" overlapTraveltime="5.63" density="7.67" laneDensity="3.83" occupancy="1.73" waitingTime="0.00" timeLoss="237.15" speed="10.92" speedRelative="0.79" departed="0" arrived="0" entered="277" left="277" laneChangedFrom="11" laneChangedTo="11"/>
        <edge id="1023791771#0" sampledSeconds="23.29" traveltime="7.08" overlapTraveltime="7.76" density="0.13" laneDensity="0.06" occupancy="0.03" waitingTime="0.00" timeLoss="2.10" speed="7.07" speedRelative="0.85" departed="0" arrived="0" entered="3" left="3" laneChangedFrom="0" laneChangedTo="0"/>
        <edge id="1023791771#1" sampledSeconds="116.70" traveltime="3.79" overlapTraveltime="38.90" density="1.33" laneDensity="0.67" occupancy="0.17" waitingTime="95.00" timeLoss="105.17" speed="0.75" speedRelative="0.09" departed="0" arrived="0" entered="3" left="3" laneChangedFrom="0" laneChangedTo="0"/>
        <edge id="1023791771#2" sampledSeconds="4.73" traveltime="0.11" overlapTraveltime="1.58" density="6.56" laneDensity="3.28" occupancy="0.06" waitingTime="0.00" timeLoss="2.27" speed="3.30" speedRelative="0.40" departed="0" arrived="0" entered="3" left="3" laneChangedFrom="0" laneChangedTo="0"/>
        <edge id="1023791771#3" sampledSeconds="22.11" traveltime="10.33" overlapTraveltime="11.05" density="0.09" laneDensity="0.04" occupancy="0.02" waitingTime="0.00" timeLoss="2.37" speed="6.86" speedRelative="0.82" departed="0" arrived="0" entered="2" left="2" laneChangedFrom="0" laneChangedTo="0"/>
        <edge id="1023791771#4" sampledSeconds="65.29" traveltime="31.12" overlapTraveltime="32.65" density="0.69" laneDensity="0.35" occupancy="0.17" waitingTime="48.00" timeLoss="56.99" speed="0.96" speedRelative="0.11" departed="0" arrived="0" entered="2" left="2" laneChangedFrom="0" laneChangedTo="0"/>
        <edge id="1023791772" sampledSeconds="73.47" traveltime="23.22" overlapTraveltime="24.49" density="5.18" laneDensity="5.18" occupancy="1.49" waitingTime="64.00" timeLoss="69.63" speed="0.37" speedRelative="0.04" departed="0" arrived="0" entered="3" left="3" laneChangedFrom="0" laneChangedTo="0"/>
        <edge id="118664583#0" sampledSeconds="270.85" traveltime="7.75" overlapTraveltime="8.21" density="0.76" laneDensity="0.38" occupancy="0.18" waitingTime="0.00" timeLoss="109.99" speed="12.71" speedRelative="0.57" departed="0" arrived="0" entered="33" left="33" laneChangedFrom="1" laneChangedTo="1"/>
        <edge id="118664583#1" sampledSeconds="174.98" traveltime="8.98" overlapTraveltime="9.21" density="0.25" laneDensity="0.12" occupancy="0.06" waitingTime="0.00" timeLoss="6.04" speed="22.00" speedRelative="0.99" departed="0" arrived="0" entered="19" left="19" laneChangedFrom="0" laneChangedTo="0"/>
        <edge id="118664583#2" sampledSeconds="135.75" traveltime="6.96" overlapTraveltime="7.19" density="0.25" laneDensity="0.12" occupancy="0.06" waitingTime="0.00" timeLoss="4.10" speed="22.10" speedRelative="0.99" departed="0" arrived="19" entered="19" left="0" laneChangedFrom="0" laneChangedTo="0"/>
        <edge id="186249134" sampledSeconds="196.50" traveltime="3.92" overlapTraveltime="4.68" density="1.36" laneDensity="0.68" occupancy="0.30" waitingTime="0.00" timeLoss="37.66" speed="9.65" speedRelative="0.69" departed="0" arrived="0" entered="42" left="42" laneChangedFrom="0" laneChangedTo="0"/>
        <edge id="264394468" sampledSeconds="454.35" traveltime="12.55" overlapTraveltime="13.18" density="1.29" laneDensity="1.29" occupancy="0.62" waitingTime="0.00" timeLoss="38.88" speed="7.80" speedRelative="0.94" departed="0" arrived="35" entered="35" left="0" laneChangedFrom="0" laneChangedTo="0"/>
        <edge id="264396528" sampledSeconds="207.84" traveltime="17.14" overlapTraveltime="18.89" density="0.70" laneDensity="0.70" occupancy="0.32" waitingTime="0.00" timeLoss="30.45" speed="4.65" speedRelative="0.84" departed="0" arrived="0" entered="11" left="11" laneChangedFrom="0" laneChangedTo="0"/>
        <edge id="300069416#0" sampledSeconds="867.01" traveltime="15.64" overlapTraveltime="16.36" density="2.08" laneDensity="1.04" occupancy="0.50" waitingTime="2.00" timeLoss="105.75" speed="7.39" speedRelative="0.89" departed="0" arrived="0" entered="53" left="53" laneChangedFrom="30" laneChangedTo="30"/>
        <edge id="300069416#1" sampledSeconds="63.85" traveltime="0.26" overlapTraveltime="1.06" density="10.75" laneDensity="5.37" occupancy="0.67" waitingTime="0.00" timeLoss="12.76" speed="6.25" speedRelative="0.75" departed="0" arrived="0" entered="60" left="60" laneChangedFrom="4" laneChangedTo="4"/>
        <edge id="300069417#0" sampledSeconds="88.17" traveltime="2.87" overlapTraveltime="3.53" density="1.17" laneDensity="1.17" occupancy="0.46" waitingTime="0.00" timeLoss="24.21" speed="7.33" speedRelative="0.66" departed="0" arrived="0" entered="25" left="25" laneChangedFrom="0" laneChangedTo="0"/>
        <edge id="300069417#1" sampledSeconds="110.52" traveltime="3.48" overlapTraveltime="4.42" density="1.03" laneDensity="1.03" occupancy="0.42" waitingTime="0.00" timeLoss="22.83" speed="7.85" speedRelative="0.71" departed="0" arrived="0" entered="25" left="25" laneChangedFrom="0" laneChangedTo="0"/>
        <edge id="300069417#2" sampledSeconds="38.78" traveltime="5.59" overlapTraveltime="6.46" density="0.20" laneDensity="0.20" occupancy="0.09" waitingTime="0.00" timeLoss="6.38" speed="9.13" speedRelative="0.82" departed="0" arrived="0" entered="6" left="6" laneChangedFrom="0" laneChangedTo="0"/>
        <edge id="305215243" sampledSeconds="38.44" traveltime="19.08" overlapTraveltime="19.46" density="0.04" laneDensity="0.02" occupancy="0.01" waitingTime="0.00" timeLoss="1.72" speed="13.42" speedRelative="0.97" departed="0" arrived="2" entered="2" left="0" laneChangedFrom="0" laneChangedTo="0"/>
        <edge id="311212628#1" sampledSeconds="149.14" traveltime="20.53" overlapTraveltime="21.31" density="0.39" laneDensity="0.19" occupancy="0.09" waitingTime="43.00" timeLoss="56.22" speed="5.28" speedRelative="0.63" departed="0" arrived="0" entered="7" left="7" laneChangedFrom="2" laneChangedTo="2"/>
        <edge id="334968591#1" sampledSeconds="239.29" traveltime="11.88" overlapTraveltime="12.59" density="0.75" laneDensity="0.38" occupancy="0.18" waitingTime="0.00" timeLoss="20.38" speed="7.41" speedRelative="0.89" departed="0" arrived="0" entered="19" left="19" laneChangedFrom="2" laneChangedTo="2"/>
        <edge id="334968591#2" sampledSeconds="23.66" traveltime="1.00" overlapTraveltime="1.69" density="0.90" laneDensity="0.45" occupancy="0.13" waitingTime="0.00" timeLoss="1.98" speed="7.29" speedRelative="0.87" departed="0" arrived="0" entered="14" left="14" laneChangedFrom="0" laneChangedTo="0"/>
        <edge id="334968591#3" sampledSeconds="135.98" traveltime="9.34" overlapTraveltime="10.02" density="0.55" laneDensity="0.28" occupancy="0.13" waitingTime="0.00" timeLoss="10.78" speed="7.32" speedRelative="0.88" departed="0" arrived="14" entered="14" left="0" laneChangedFrom="0" laneChangedTo="0"/>
        <edge id="337277984#6" sampledSeconds="186.39" traveltime="35.86" overlapTraveltime="37.28" density="0.37" laneDensity="0.18" occupancy="0.09" waitingTime="74.00" timeLoss="96.75" speed="3.91" speedRelative="0.47" departed="0" arrived="0" entered="5" left="5" laneChangedFrom="3" laneChangedTo="3"/>
        <edge id="370601722#0" sampledSeconds="324.28" traveltime="5.84" overlapTraveltime="6.49" density="1.75" laneDensity="0.88" occupancy="0.39" waitingTime="0.00" timeLoss="124.23" speed="8.71" speedRelative="0.63" departed="0" arrived="0" entered="50" left="50" laneChangedFrom="1" laneChangedTo="1"/>
        <edge id="370601722#1" sampledSeconds="456.17" traveltime="7.95" overlapTraveltime="8.74" density="1.44" laneDensity="0.72" occupancy="0.33" waitingTime="3.00" timeLoss="86.17" speed="10.67" speedRelative="0.77" departed="0" arrived="7" entered="53" left="45" laneChangedFrom="0" laneChangedTo="0"/>
        <edge id="389741416" sampledSeconds="2.23" traveltime="0.18" overlapTraveltime="0.56" density="0.25" laneDensity="0.13" occupancy="0.02" waitingTime="0.00" timeLoss="0.10" speed="13.40" speedRelative="0.96" departed="0" arrived="0" entered="4" left="4" laneChangedFrom="0" laneChangedTo="0"/>
        <edge id="389741417#0" sampledSeconds="5.29" traveltime="0.89" overlapTraveltime="1.32" density="0.16" laneDensity="0.08" occupancy="0.03" waitingTime="0.00" timeLoss="1.18" speed="10.88" speedRelative="0.78" departed="0" arrived="0" entered="4" left="4" laneChangedFrom="0" laneChangedTo="0"/>
        <edge id="389741417#1" sampledSeconds="23.58" traveltime="5.53" overlapTraveltime="5.90" density="0.09" laneDensity="0.04" occupancy="0.02" waitingTime="0.00" timeLoss="1.27" speed="13.25" speedRelative="0.95" departed="0" arrived="0" entered="4" left="4" laneChangedFrom="1" laneChangedTo="1"/>
        <edge id="389741418" sampledSeconds="647.33" traveltime="9.22" overlapTraveltime="9.83" density="4.65" laneDensity="2.32" occupancy="1.11" waitingTime="376.00" timeLoss="440.59" speed="4.44" speedRelative="0.32" departed="0" arrived="0" entered="66" left="65" laneChangedFrom="16" laneChangedTo="16"/>
        <edge id="389741419" sampledSeconds="123.49" traveltime="19.74" overlapTraveltime="20.58" density="0.32" laneDensity="0.16" occupancy="0.08" waitingTime="60.00" timeLoss="74.46" speed="5.41" speedRelative="0.39" departed="0" arrived="0" entered="6" left="6" laneChangedFrom="0" laneChangedTo="0"/>
        <edge id="398532019#0" sampledSeconds="79.97" traveltime="9.43" overlapTraveltime="10.00" density="0.20" laneDensity="0.10" occupancy="0.05" waitingTime="0.00" timeLoss="14.07" speed="11.38" speedRelative="0.82" departed="0" arrived="0" entered="8" left="8" laneChangedFrom="3" laneChangedTo="3"/>
        <edge id="398532019#1" sampledSeconds="55.30" traveltime="13.43" overlapTraveltime="13.82" density="0.09" laneDensity="0.04" occupancy="0.02" waitingTime="0.00" timeLoss="2.68" speed="12.79" speedRelative="0.92" departed="0" arrived="0" entered="4" left="4" laneChangedFrom="0" laneChangedTo="0"/>
        <edge id="398532019#2" sampledSeconds="48.88" traveltime="11.84" overlapTraveltime="12.23" density="0.09" laneDensity="0.04" occupancy="0.02" waitingTime="0.00" timeLoss="2.42" speed="12.77" speedRelative="0.92" departed="0" arrived="4" entered="4" left="0" laneChangedFrom="0" laneChangedTo="0"/>
        <edge id="399285450#2" sampledSeconds="37.15" traveltime="36.74" overlapTraveltime="37.35" density="0.03" laneDensity="0.02" occupancy="0.01" waitingTime="0.00" timeLoss="2.94" speed="8.44" speedRelative="1.01" departed="0" arrived="1" entered="1" left="0" laneChangedFrom="1" laneChangedTo="1"/>
        <edge id="402762621" sampledSeconds="22.99" traveltime="21.92" overlapTraveltime="22.99" density="0.11" laneDensity="0.11" occupancy="0.05" waitingTime="0.00" timeLoss="5.17" speed="2.64" speedRelative="0.95" departed="0" arrived="0" entered="1" left="1" laneChangedFrom="0" laneChangedTo="0"/>
        <edge id="402762623#0" sampledSeconds="8.63" traveltime="6.87" overlapTraveltime="8.63" density="0.13" laneDensity="0.13" occupancy="0.05" waitingTime="0.00" timeLoss="1.33" speed="2.70" speedRelative="0.97" departed="0" arrived="0" entered="1" left="1" laneChangedFrom="0" laneChangedTo="0"/>
        <edge id="402762623#1" sampledSeconds="12.30" traveltime="10.39" overlapTraveltime="12.30" density="0.12" laneDensity="0.12" occupancy="0.05" waitingTime="0.00" timeLoss="2.02" speed="2.67" speedRelative="0.96" departed="0" arrived="0" entered="1" left="1" laneChangedFrom="0" laneChangedTo="0"/>
        <edge id="40668087#0" sampledSeconds="69.91" traveltime="13.35" overlapTraveltime="13.98" density="0.18" laneDensity="0.18" occupancy="0.09" waitingTime="0.00" timeLoss="6.34" speed="7.91" speedRelative="0.95" departed="0" arrived="0" entered="5" left="5" laneChangedFrom="0" laneChangedTo="0"/>
        <edge id="40668087#1" sampledSeconds="77.32" traveltime="14.85" overlapTraveltime="15.46" density="0.18" laneDensity="0.18" occupancy="0.09" waitingTime="0.00" timeLoss="4.88" speed="8.15" speedRelative="0.98" departed="0" arrived="0" entered="5" left="5" laneChangedFrom="0" laneChangedTo="0"/>
        <edge id="40668087#2" sampledSeconds="76.59" traveltime="14.50" overlapTraveltime="15.32" density="0.19" laneDensity="0.19" occupancy="0.09" waitingTime="1.00" timeLoss="8.65" speed="7.71" speedRelative="0.93" departed="0" arrived="0" entered="5" left="5" laneChangedFrom="0" laneChangedTo="0"/>
        <edge id="40668087#3" sampledSeconds="83.71" traveltime="15.74" overlapTraveltime="16.74" density="0.21" laneDensity="0.21" occupancy="0.10" waitingTime="1.00" timeLoss="16.94" speed="6.93" speedRelative="0.83" departed="0" arrived="0" entered="5" left="5" laneChangedFrom="0" laneChangedTo="0"/>
        <edge id="40668087#4" sampledSeconds="75.94" traveltime="14.57" overlapTraveltime="15.19" density="0.19" laneDensity="0.19" occupancy="0.09" waitingTime="0.00" timeLoss="7.69" speed="7.81" speedRelative="0.94" departed="0" arrived="0" entered="5" left="5" laneChangedFrom="0" laneChangedTo="0"/>
        <edge id="40668087#5" sampledSeconds="71.84" traveltime="13.99" overlapTraveltime="14.62" density="0.18" laneDensity="0.18" occupancy="0.09" waitingTime="0.00" timeLoss="5.26" speed="8.06" speedRelative="0.97" departed="0" arrived="5" entered="5" left="0" laneChangedFrom="0" laneChangedTo="0"/>
        <edge id="40972457#0" sampledSeconds="728.45" traveltime="4.35" overlapTraveltime="5.40" density="6.80" laneDensity="3.40" occupancy="1.43" waitingTime="0.00" timeLoss="130.34" speed="6.44" speedRelative="0.77" departed="0" arrived="0" entered="135" left="135" laneChangedFrom="6" laneChangedTo="6"/>
        <edge id="40972457#1" sampledSeconds="3385.28" traveltime="25.51" overlapTraveltime="26.20" density="4.92" laneDensity="2.46" occupancy="1.19" waitingTime="14.00" timeLoss="321.74" speed="7.48" speedRelative="0.90" departed="0" arrived="0" entered="130" left="129" laneChangedFrom="22" laneChangedTo="22"/>
        <edge id="40972457#2" sampledSeconds="213.92" traveltime="1.18" overlapTraveltime="1.84" density="6.80" laneDensity="3.40" occupancy="1.13" waitingTime="0.00" timeLoss="21.63" speed="7.47" speedRelative="0.90" departed="0" arrived="129" entered="129" left="0" laneChangedFrom="0" laneChangedTo="0"/>
        <edge id="410645790" sampledSeconds="3905.29" traveltime="48.31" overlapTraveltime="50.70" density="10.88" laneDensity="10.88" occupancy="5.18" waitingTime="0.00" timeLoss="1000.93" speed="2.07" speedRelative="0.74" departed="0" arrived="0" entered="80" left="76" laneChangedFrom="0" laneChangedTo="0"/>
        <edge id="410645791" sampledSeconds="99.98" traveltime="17.67" overlapTraveltime="20.00" density="0.72" laneDensity="0.72" occupancy="0.32" waitingTime="0.00" timeLoss="23.26" speed="2.17" speedRelative="0.78" departed="0" arrived="0" entered="5" left="5" laneChangedFrom="0" laneChangedTo="0"/>
        <edge id="410645792" sampledSeconds="53.60" traveltime="8.48" overlapTraveltime="10.72" density="0.82" laneDensity="0.82" occupancy="0.33" waitingTime="0.00" timeLoss="12.79" speed="2.16" speedRelative="0.78" departed="0" arrived="0" entered="5" left="5" laneChangedFrom="0" laneChangedTo="0"/>
        <edge id="410645793" sampledSeconds="59.45" traveltime="9.51" overlapTraveltime="11.89" density="0.85" laneDensity="0.85" occupancy="0.34" waitingTime="0.00" timeLoss="16.38" speed="2.05" speedRelative="0.74" departed="0" arrived="0" entered="5" left="5" laneChangedFrom="0" laneChangedTo="0"/>
        <edge id="410645794" sampledSeconds="1912.90" traveltime="9.91" overlapTraveltime="11.49" density="5.49" laneDensity="5.49" occupancy="2.46" waitingTime="0.00" timeLoss="564.15" speed="8.86" speedRelative="0.64" departed="0" arrived="10" entered="167" left="156" laneChangedFrom="0" laneChangedTo="0"/>
        <edge id="416775490#0" sampledSeconds="1.13" traveltime="0.02" overlapTraveltime="0.56" density="1.57" laneDensity="1.57" occupancy="0.03" waitingTime="0.00" timeLoss="0.53" speed="9.21" speedRelative="0.41" departed="0" arrived="0" entered="2" left="2" laneChangedFrom="0" laneChangedTo="0"/>
        <edge id="416775490#1" sampledSeconds="1.01" traveltime="0.02" overlapTraveltime="0.51" density="1.40" laneDensity="1.40" occupancy="0.03" waitingTime="0.00" timeLoss="0.55" speed="10.29" speedRelative="0.46" departed="0" arrived="0" entered="2" left="2" laneChangedFrom="0" laneChangedTo="0"/>
        <edge id="42141326#0" sampledSeconds="58.18" traveltime="7.67" overlapTraveltime="8.31" density="0.27" laneDensity="0.14" occupancy="0.06" waitingTime="0.00" timeLoss="4.75" speed="7.80" speedRelative="0.94" departed="0" arrived="0" entered="7" left="7" laneChangedFrom="0" laneChangedTo="0"/>
        <edge id="42141326#1" sampledSeconds="117.31" traveltime="18.60" overlapTraveltime="19.55" density="0.37" laneDensity="0.19" occupancy="0.09" waitingTime="37.00" timeLoss="50.25" speed="4.75" speedRelative="0.57" departed="0" arrived="0" entered="6" left="6" laneChangedFrom="0" laneChangedTo="0"/>
        <edge id="42141326#10" sampledSeconds="135.05" traveltime="14.36" overlapTraveltime="15.01" density="0.34" laneDensity="0.17" occupancy="0.08" waitingTime="0.00" timeLoss="10.18" speed="7.72" speedRelative="0.93" departed="0" arrived="0" entered="9" left="9" laneChangedFrom="0" laneChangedTo="0"/>
        <edge id="42141326#11" sampledSeconds="137.46" traveltime="14.62" overlapTraveltime="15.27" density="0.34" laneDensity="0.17" occupancy="0.08" waitingTime="0.00" timeLoss="11.25" speed="7.67" speedRelative="0.92" departed="0" arrived="0" entered="9" left="9" laneChangedFrom="0" laneChangedTo="0"/>
        <edge id="42141326#12" sampledSeconds="125.66" traveltime="13.31" overlapTraveltime="13.96" density="0.34" laneDensity="0.17" occupancy="0.08" waitingTime="0.00" timeLoss="9.50" speed="7.72" speedRelative="0.93" departed="0" arrived="0" entered="9" left="9" laneChangedFrom="0" laneChangedTo="0"/>
        <edge id="42141326#13" sampledSeconds="143.37" traveltime="15.20" overlapTraveltime="15.93" density="0.36" laneDensity="0.18" occupancy="0.09" waitingTime="4.00" timeLoss="17.25" speed="7.35" speedRelative="0.88" departed="0" arrived="0" entered="9" left="9" laneChangedFrom="0" laneChangedTo="0"/>
        <edge id="42141326#14" sampledSeconds="134.86" traveltime="14.54" overlapTraveltime="15.18" density="0.33" laneDensity="0.17" occupancy="0.08" waitingTime="0.00" timeLoss="10.08" speed="7.73" speedRelative="0.93" departed="0" arrived="9" entered="9" left="0" laneChangedFrom="0" laneChangedTo="0"/>
        <edge id="42141326#2" sampledSeconds="118.62" traveltime="12.54" overlapTraveltime="13.18" density="0.34" laneDensity="0.17" occupancy="0.08" waitingTime="0.00" timeLoss="10.07" speed="7.64" speedRelative="0.92" departed="0" arrived="0" entered="9" left="9" laneChangedFrom="5" laneChangedTo="5"/>
        <edge id="42141326#3" sampledSeconds="17.29" traveltime="1.27" overlapTraveltime="1.92" density="0.48" laneDensity="0.24" occupancy="0.08" waitingTime="0.00" timeLoss="1.19" speed="7.78" speedRelative="0.93" departed="0" arrived="0" entered="9" left="9" laneChangedFrom="0" laneChangedTo="0"/>
        <edge id="42141326#4" sampledSeconds="15.58" traveltime="1.08" overlapTraveltime="1.73" density="0.52" laneDensity="0.26" occupancy="0.08" waitingTime="0.00" timeLoss="1.28" speed="7.67" speedRelative="0.92" departed="0" arrived="0" entered="9" left="9" laneChangedFrom="0" laneChangedTo="0"/>
        <edge id="42141326#5" sampledSeconds="124.93" traveltime="13.23" overlapTraveltime="13.88" density="0.34" laneDensity="0.17" occupancy="0.08" waitingTime="0.00" timeLoss="9.12" speed="7.74" speedRelative="0.93" departed="0" arrived="0" entered="9" left="9" laneChangedFrom="0" laneChangedTo="0"/>
        <edge id="42141326#6" sampledSeconds="140.95" traveltime="14.87" overlapTraveltime="15.66" density="0.36" laneDensity="0.18" occupancy="0.09" waitingTime="2.00" timeLoss="17.45" speed="7.32" speedRelative="0.88" departed="0" arrived="0" entered="9" left="9" laneChangedFrom="0" laneChangedTo="0"/>
        <edge id="42141326#7" sampledSeconds="14.45" traveltime="0.93" overlapTraveltime="1.61" density="0.66" laneDensity="0.33" occupancy="0.09" waitingTime="0.00" timeLoss="2.53" speed="6.89" speedRelative="0.83" departed="0" arrived="0" entered="9" left="9" laneChangedFrom="0" laneChangedTo="0"/>
        <edge id="42141326#8" sampledSeconds="13.00" traveltime="0.80" overlapTraveltime="1.44" density="0.60" laneDensity="0.30" occupancy="0.08" waitingTime="0.00" timeLoss="1.16" speed="7.61" speedRelative="0.91" departed="0" arrived="0" entered="9" left="9" laneChangedFrom="0" laneChangedTo="0"/>