<?xml version="1.0" encoding="UTF-8"?>

<!-- generated on 2024-07-09 14:23:11 by Eclipse SUMO sumo Version v1_19_0+1520-dc4640af2ac
<configuration xmlns:xsi="http://www.w3.org/2001/XMLSchema-instance" xsi:noNamespaceSchemaLocation="http://sumo.dlr.de/xsd/sumoConfiguration.xsd">

    <input>
        <net-file value="avhuaynacapac.net.xml"/>
        <route-files value="avhuaynacapac.rou.xml"/>
        <additional-files value="avhuaynacapac.poly.xml,detectores.add.xml"/>
    </input>

    <output>
        <emission-output value="co2.xml"/>
        <fcd-output value="fcd.xml"/>
        <tripinfo-output value="tripinfo.xml"/>
        <edgedata-output value="edgedata.xml"/>
    </output>

    <time>
        <begin value="0"/>
        <end value="3600"/>
        <step-length value="1"/>
    </time>

    <processing>
        <ignore-route-errors value="true"/>
    </processing>

    <report>
        <verbose value="true"/>
    </report>

    <emissions>
        <device.emissions.probability value="1"/>
    </emissions>

</configuration>
-->

<meandata xmlns:xsi="http://www.w3.org/2001/XMLSchema-instance" xsi:noNamespaceSchemaLocation="http://sumo.dlr.de/xsd/meandata_file.xsd">
    <interval begin="0.00" end="3600.00" id="DEFAULT_EDGEDATA">
        <edge id="-1023791772" sampledSeconds="123.26" traveltime="0.70" overlapTraveltime="4.26" density="8.69" laneDensity="8.69" occupancy="2.68" waitingTime="69.00" timeLoss="83.74" speed="2.10" speedRelative="0.25" departed="4" arrived="1" entered="27" left="30" laneChangedFrom="0" laneChangedTo="0"/>
        <edge id="-264396528" sampledSeconds="56.22" traveltime="18.93" overlapTraveltime="19.89" density="0.19" laneDensity="0.19" occupancy="0.09" waitingTime="0.00" timeLoss="8.23" speed="4.42" speedRelative="0.79" departed="3" arrived="0" entered="0" left="3" laneChangedFrom="0" laneChangedTo="0"/>
        <edge id="-389741416" sampledSeconds="213.85" traveltime="0.27" overlapTraveltime="0.83" density="24.05" laneDensity="12.03" occupancy="2.05" waitingTime="3.00" timeLoss="45.09" speed="9.00" speedRelative="0.65" departed="8" arrived="8" entered="253" left="253" laneChangedFrom="3" laneChangedTo="3"/>
        <edge id="-389741417#0" sampledSeconds="1342.44" traveltime="6.40" overlapTraveltime="6.94" density="39.46" laneDensity="19.73" occupancy="8.12" waitingTime="992.00" timeLoss="1141.86" speed="2.08" speedRelative="0.15" departed="6" arrived="1" entered="190" left="194" laneChangedFrom="0" laneChangedTo="0"/>
        <edge id="-389741417#1" sampledSeconds="1475.59" traveltime="7.24" overlapTraveltime="7.70" density="5.58" laneDensity="2.79" occupancy="1.32" waitingTime="230.00" timeLoss="396.06" speed="10.20" speedRelative="0.73" departed="4" arrived="2" entered="188" left="190" laneChangedFrom="0" laneChangedTo="0"/>
        <edge id="-389741418" sampledSeconds="131.27" traveltime="4.11" overlapTraveltime="4.51" density="0.94" laneDensity="0.47" occupancy="0.21" waitingTime="0.00" timeLoss="36.86" speed="9.68" speedRelative="0.70" departed="5" arrived="3" entered="25" left="27" laneChangedFrom="5" laneChangedTo="5"/>
        <edge id="-389741419" sampledSeconds="2834.58" traveltime="11.52" overlapTraveltime="12.02" density="7.38" laneDensity="3.69" occupancy="1.77" waitingTime="633.00" timeLoss="948.65" speed="9.29" speedRelative="0.67" departed="5" arrived="4" entered="231" left="232" laneChangedFrom="17" laneChangedTo="17"/>
        <edge id="-398531209" sampledSeconds="67.36" traveltime="0.50" overlapTraveltime="1.52" density="8.17" laneDensity="8.17" occupancy="1.28" waitingTime="0.00" timeLoss="23.01" speed="4.78" speedRelative="0.22" departed="1" arrived="7" entered="45" left="39" laneChangedFrom="0" laneChangedTo="0"/>
        <edge id="-402762621" sampledSeconds="744.81" traveltime="26.95" overlapTraveltime="29.34" density="3.71" laneDensity="3.71" occupancy="1.72" waitingTime="0.00" timeLoss="183.27" speed="2.07" speedRelative="0.75" departed="2" arrived="7" entered="24" left="19" laneChangedFrom="0" laneChangedTo="0"/>
        <edge id="-402762623#0" sampledSeconds="211.79" traveltime="9.28" overlapTraveltime="11.89" density="3.22" laneDensity="3.22" occupancy="1.30" waitingTime="0.00" timeLoss="55.50" speed="1.96" speedRelative="0.70" departed="4" arrived="2" entered="15" left="17" laneChangedFrom="0" laneChangedTo="0"/>
        <edge id="-402762623#1" sampledSeconds="238.63" traveltime="13.94" overlapTraveltime="16.42" density="2.39" laneDensity="2.39" occupancy="1.02" waitingTime="0.00" timeLoss="62.06" speed="2.00" speedRelative="0.72" departed="3" arrived="0" entered="12" left="15" laneChangedFrom="0" laneChangedTo="0"/>
        <edge id="-410645791" sampledSeconds="311.02" traveltime="16.36" overlapTraveltime="17.64" density="2.38" laneDensity="2.38" occupancy="1.08" waitingTime="0.00" timeLoss="72.45" speed="2.34" speedRelative="0.84" departed="3" arrived="0" entered="15" left="18" laneChangedFrom="0" laneChangedTo="0"/>
        <edge id="-410645792" sampledSeconds="49.29" traveltime="8.48" overlapTraveltime="10.54" density="0.76" laneDensity="0.76" occupancy="0.33" waitingTime="0.00" timeLoss="12.67" speed="2.19" speedRelative="0.79" departed="6" arrived="0" entered="0" left="6" laneChangedFrom="0" laneChangedTo="0"/>
        <edge id="-410645793" sampledSeconds="57.33" traveltime="11.57" overlapTraveltime="14.02" density="0.69" laneDensity="0.69" occupancy="0.31" waitingTime="0.00" timeLoss="14.13" speed="1.99" speedRelative="0.72" departed="5" arrived="0" entered="0" left="5" laneChangedFrom="0" laneChangedTo="0"/>
        <edge id="-410645794" sampledSeconds="180.86" traveltime="12.23" overlapTraveltime="13.23" density="0.49" laneDensity="0.49" occupancy="0.23" waitingTime="5.00" timeLoss="67.27" speed="8.11" speedRelative="0.58" departed="7" arrived="0" entered="7" left="14" laneChangedFrom="0" laneChangedTo="0"/>
        <edge id="-424074247" sampledSeconds="30.83" traveltime="6.19" overlapTraveltime="7.12" density="0.26" laneDensity="0.26" occupancy="0.12" waitingTime="0.00" timeLoss="16.39" speed="5.35" speedRelative="0.39" departed="5" arrived="0" entered="0" left="5" laneChangedFrom="0" laneChangedTo="0"/>
        <edge id="-47861233" sampledSeconds="2131.94" traveltime="18.81" overlapTraveltime="19.76" density="7.85" laneDensity="3.92" occupancy="1.90" waitingTime="1140.00" timeLoss="1502.96" speed="4.07" speedRelative="0.29" departed="5" arrived="9" entered="104" left="98" laneChangedFrom="52" laneChangedTo="52"/>
        <edge id="-47861236" sampledSeconds="224.76" traveltime="2.47" overlapTraveltime="3.02" density="2.47" laneDensity="1.23" occupancy="0.52" waitingTime="0.00" timeLoss="47.29" speed="10.04" speedRelative="0.72" departed="8" arrived="3" entered="68" left="73" laneChangedFrom="0" laneChangedTo="0"/>
        <edge id="-47861237" sampledSeconds="283.69" traveltime="3.43" overlapTraveltime="3.82" density="2.31" laneDensity="1.15" occupancy="0.50" waitingTime="0.00" timeLoss="69.90" speed="10.23" speedRelative="0.74" departed="6" arrived="3" entered="69" left="72" laneChangedFrom="1" laneChangedTo="1"/>
        <edge id="-48202921" sampledSeconds="6712.20" traveltime="30.95" overlapTraveltime="31.90" density="23.14" laneDensity="11.57" occupancy="5.66" waitingTime="4516.00" timeLoss="5410.48" speed="2.68" speedRelative="0.19" departed="6" arrived="2" entered="205" left="207" laneChangedFrom="0" laneChangedTo="0"/>
        <edge id="-48202922" sampledSeconds="2331.32" traveltime="16.68" overlapTraveltime="17.38" density="6.01" laneDensity="3.01" occupancy="1.45" waitingTime="917.00" timeLoss="1235.28" speed="6.49" speedRelative="0.47" departed="2" arrived="5" entered="133" left="128" laneChangedFrom="72" laneChangedTo="72"/>
        <edge id="-48202923" sampledSeconds="4606.95" traveltime="20.19" overlapTraveltime="20.92" density="14.11" laneDensity="7.05" occupancy="3.43" waitingTime="2361.00" timeLoss="3093.40" speed="4.57" speedRelative="0.33" departed="5" arrived="4" entered="216" left="213" laneChangedFrom="43" laneChangedTo="43"/>
        <edge id="-48202929#0" sampledSeconds="3561.02" traveltime="20.00" overlapTraveltime="21.16" density="10.53" laneDensity="10.53" occupancy="5.05" waitingTime="1861.00" timeLoss="2322.92" speed="4.68" speedRelative="0.34" departed="9" arrived="4" entered="160" left="163" laneChangedFrom="0" laneChangedTo="0"/>
        <edge id="-48202929#1" sampledSeconds="740.51" traveltime="0.31" overlapTraveltime="3.77" density="133.33" laneDensity="133.33" occupancy="20.16" waitingTime="538.29" timeLoss="641.56" speed="1.38" speedRelative="0.10" departed="3" arrived="3" entered="194" left="194" laneChangedFrom="0" laneChangedTo="0"/>
        <edge id="-48202930" sampledSeconds="2275.84" traveltime="14.12" overlapTraveltime="15.10" density="6.30" laneDensity="6.30" occupancy="2.99" waitingTime="17.00" timeLoss="387.18" speed="6.98" speedRelative="0.84" departed="6" arrived="5" entered="145" left="146" laneChangedFrom="0" laneChangedTo="0"/>
        <edge id="-48866096" sampledSeconds="109.09" traveltime="21.40" overlapTraveltime="22.76" density="0.32" laneDensity="0.32" occupancy="0.16" waitingTime="45.00" timeLoss="72.46" speed="4.33" speedRelative="0.31" departed="4" arrived="1" entered="1" left="4" laneChangedFrom="0" laneChangedTo="0"/>
        <edge id="-49578956" sampledSeconds="40.68" traveltime="8.23" overlapTraveltime="9.08" density="0.26" laneDensity="0.26" occupancy="0.12" waitingTime="0.00" timeLoss="12.13" speed="5.40" speedRelative="0.65" departed="5" arrived="0" entered="0" left="5" laneChangedFrom="0" laneChangedTo="0"/>
        <edge id="-60204530" sampledSeconds="67.18" traveltime="66.59" overlapTraveltime="68.21" density="0.06" laneDensity="0.03" occupancy="0.01" waitingTime="32.00" timeLoss="41.00" speed="4.93" speedRelative="0.35" departed="1" arrived="0" entered="0" left="1" laneChangedFrom="0" laneChangedTo="0"/>
        <edge id="-604749597" sampledSeconds="374.03" traveltime="4.57" overlapTraveltime="5.01" density="1.84" laneDensity="0.92" occupancy="0.42" waitingTime="0.00" timeLoss="30.37" speed="12.27" speedRelative="0.88" departed="3" arrived="5" entered="72" left="70" laneChangedFrom="6" laneChangedTo="6"/>
        <edge id="-972644144#0" sampledSeconds="142.16" traveltime="23.28" overlapTraveltime="23.69" density="0.14" laneDensity="0.14" occupancy="0.07" waitingTime="0.00" timeLoss="8.51" speed="12.05" speedRelative="0.87" departed="0" arrived="6" entered="6" left="0" laneChangedFrom="0" laneChangedTo="0"/>
        <edge id="-972644144#1" sampledSeconds="141.35" traveltime="6.67" overlapTraveltime="7.94" density="0.55" laneDensity="0.55" occupancy="0.25" waitingTime="4.00" timeLoss="32.66" speed="9.59" speedRelative="0.69" departed="3" arrived="3" entered="15" left="15" laneChangedFrom="0" laneChangedTo="0"/>
        <edge id="1023791771#0" sampledSeconds="737.04" traveltime="6.65" overlapTraveltime="7.31" density="4.10" laneDensity="2.05" occupancy="0.93" waitingTime="0.00" timeLoss="71.20" speed="7.51" speedRelative="0.90" departed="1" arrived="3" entered="100" left="98" laneChangedFrom="2" laneChangedTo="2"/>
        <edge id="1023791771#1" sampledSeconds="1934.16" traveltime="6.13" overlapTraveltime="18.96" density="22.05" laneDensity="11.02" occupancy="3.48" waitingTime="1285.00" timeLoss="1563.32" speed="1.55" speedRelative="0.19" departed="5" arrived="2" entered="98" left="101" laneChangedFrom="14" laneChangedTo="14"/>
        <edge id="1023791771#2" sampledSeconds="197.46" traveltime="0.62" overlapTraveltime="1.85" density="266.67" laneDensity="133.33" occupancy="2.66" waitingTime="56.00" timeLoss="110.81" speed="2.81" speedRelative="0.34" departed="7" arrived="2" entered="101" left="106" laneChangedFrom="0" laneChangedTo="0"/>
        <edge id="1023791771#3" sampledSeconds="634.05" traveltime="9.33" overlapTraveltime="9.98" density="2.49" laneDensity="1.24" occupancy="0.58" waitingTime="0.00" timeLoss="61.53" speed="7.60" speedRelative="0.91" departed="5" arrived="8" entered="59" left="56" laneChangedFrom="4" laneChangedTo="4"/>
        <edge id="1023791771#4" sampledSeconds="1522.87" traveltime="24.22" overlapTraveltime="25.50" density="16.15" laneDensity="8.07" occupancy="3.91" waitingTime="1094.00" timeLoss="1301.98" speed="1.22" speedRelative="0.15" departed="5" arrived="8" entered="56" left="53" laneChangedFrom="6" laneChangedTo="6"/>
        <edge id="1023791772" sampledSeconds="542.10" traveltime="9.34" overlapTraveltime="10.16" density="38.22" laneDensity="38.22" occupancy="10.80" waitingTime="419.00" timeLoss="484.51" speed="0.88" speedRelative="0.11" departed="4" arrived="6" entered="52" left="50" laneChangedFrom="0" laneChangedTo="0"/>
        <edge id="118664583#0" sampledSeconds="635.42" traveltime="8.37" overlapTraveltime="8.99" density="1.78" laneDensity="0.89" occupancy="0.41" waitingTime="0.00" timeLoss="276.00" speed="11.60" speedRelative="0.52" departed="6" arrived="4" entered="65" left="67" laneChangedFrom="6" laneChangedTo="6"/>
        <edge id="118664583#1" sampledSeconds="109.90" traveltime="8.96" overlapTraveltime="9.19" density="0.15" laneDensity="0.08" occupancy="0.04" waitingTime="0.00" timeLoss="3.63" speed="22.05" speedRelative="0.99" departed="0" arrived="7" entered="12" left="5" laneChangedFrom="0" laneChangedTo="0"/>
        <edge id="118664583#2" sampledSeconds="36.08" traveltime="7.03" overlapTraveltime="7.26" density="0.07" laneDensity="0.03" occupancy="0.02" waitingTime="0.00" timeLoss="0.94" speed="21.88" speedRelative="0.98" departed="0" arrived="5" entered="5" left="0" laneChangedFrom="0" laneChangedTo="0"/>
        <edge id="186249134" sampledSeconds="45.55" traveltime="4.66" overlapTraveltime="5.39" density="0.32" laneDensity="0.16" occupancy="0.07" waitingTime="0.00" timeLoss="15.03" speed="8.37" speedRelative="0.60" departed="4" arrived="3" entered="5" left="6" laneChangedFrom="0" laneChangedTo="0"/>
        <edge id="264394468" sampledSeconds="25.68" traveltime="12.65" overlapTraveltime="13.31" density="0.07" laneDensity="0.07" occupancy="0.04" waitingTime="0.00" timeLoss="1.89" speed="7.72" speedRelative="0.93" departed="0" arrived="2" entered="2" left="0" laneChangedFrom="0" laneChangedTo="0"/>
        <edge id="264396528" sampledSeconds="101.35" traveltime="16.53" overlapTraveltime="17.49" density="0.34" laneDensity="0.34" occupancy="0.16" waitingTime="0.00" timeLoss="12.57" speed="5.02" speedRelative="0.90" departed="0" arrived="6" entered="6" left="0" laneChangedFrom="0" laneChangedTo="0"/>
        <edge id="285931678" sampledSeconds="162.05" traveltime="14.39" overlapTraveltime="15.16" density="0.45" laneDensity="0.45" occupancy="0.22" waitingTime="0.00" timeLoss="19.07" speed="6.93" speedRelative="0.83" departed="4" arrived="7" entered="7" left="4" laneChangedFrom="0" laneChangedTo="0"/>
        <edge id="300069416#0" sampledSeconds="1101.04" traveltime="15.76" overlapTraveltime="16.52" density="2.64" laneDensity="1.32" occupancy="0.63" waitingTime="0.00" timeLoss="130.24" speed="7.32" speedRelative="0.88" departed="8" arrived="1" entered="59" left="66" laneChangedFrom="3" laneChangedTo="3"/>
        <edge id="300069416#1" sampledSeconds="108.44" traveltime="0.33" overlapTraveltime="1.32" density="18.26" laneDensity="9.13" occupancy="1.14" waitingTime="0.00" timeLoss="33.29" speed="5.02" speedRelative="0.60" departed="3" arrived="3" entered="80" left="80" laneChangedFrom="14" laneChangedTo="14"/>
        <edge id="300069417#0" sampledSeconds="276.43" traveltime="2.85" overlapTraveltime="3.37" density="3.68" laneDensity="3.68" occupancy="1.46" waitingTime="0.00" timeLoss="84.29" speed="7.67" speedRelative="0.69" departed="5" arrived="4" entered="78" left="79" laneChangedFrom="0" laneChangedTo="0"/>
        <edge id="300069417#1" sampledSeconds="276.86" traveltime="3.00" overlapTraveltime="3.49" density="2.59" laneDensity="2.59" occupancy="1.11" waitingTime="0.00" timeLoss="28.97" speed="9.93" speedRelative="0.89" departed="4" arrived="4" entered="76" left="76" laneChangedFrom="0" laneChangedTo="0"/>
        <edge id="300069417#2" sampledSeconds="510.39" traveltime="5.92" overlapTraveltime="6.65" density="2.62" laneDensity="2.62" occupancy="1.19" waitingTime="1.00" timeLoss="91.14" speed="8.87" speedRelative="0.80" departed="3" arrived="5" entered="74" left="72" laneChangedFrom="0" laneChangedTo="0"/>
        <edge id="303057278" sampledSeconds="251.74" traveltime="0.70" overlapTraveltime="1.19" density="9.29" laneDensity="4.64" occupancy="1.41" waitingTime="0.00" timeLoss="25.85" speed="10.52" speedRelative="0.76" departed="2" arrived="4" entered="211" left="209" laneChangedFrom="13" laneChangedTo="13"/>
        <edge id="305214684" sampledSeconds="3927.62" traveltime="52.80" overlapTraveltime="54.09" density="16.19" laneDensity="8.09" occupancy="3.98" waitingTime="3101.00" timeLoss="3521.21" speed="1.34" speedRelative="0.10" departed="4" arrived="2" entered="69" left="70" laneChangedFrom="4" laneChangedTo="4"/>
        <edge id="305214685" sampledSeconds="161.69" traveltime="74.04" overlapTraveltime="20.69" density="224.57" laneDensity="112.29" occupancy="2.24" waitingTime="148.00" timeLoss="155.63" speed="0.25" speedRelative="0.02" departed="7" arrived="1" entered="2" left="8" laneChangedFrom="5" laneChangedTo="5"/>
        <edge id="305215243" sampledSeconds="121.25" traveltime="19.89" overlapTraveltime="20.28" density="0.13" laneDensity="0.07" occupancy="0.03" waitingTime="0.00" timeLoss="6.19" speed="12.88" speedRelative="0.93" departed="0" arrived="6" entered="6" left="0" laneChangedFrom="0" laneChangedTo="0"/>
        <edge id="311212628#0" sampledSeconds="200.31" traveltime="50.03" overlapTraveltime="50.78" density="0.15" laneDensity="0.08" occupancy="0.04" waitingTime="0.00" timeLoss="22.74" speed="7.23" speedRelative="0.87" departed="4" arrived="0" entered="0" left="4" laneChangedFrom="0" laneChangedTo="0"/>
        <edge id="311212628#1" sampledSeconds="1063.57" traveltime="20.88" overlapTraveltime="21.73" density="2.75" laneDensity="1.37" occupancy="0.66" waitingTime="312.00" timeLoss="416.30" speed="5.17" speedRelative="0.62" departed="1" arrived="3" entered="48" left="46" laneChangedFrom="22" laneChangedTo="22"/>
        <edge id="334968130#0" sampledSeconds="13.11" traveltime="0.04" overlapTraveltime="1.31" density="18.21" laneDensity="9.11" occupancy="0.18" waitingTime="0.00" timeLoss="6.46" speed="3.98" speedRelative="0.48" departed="4" arrived="5" entered="10" left="9" laneChangedFrom="0" laneChangedTo="0"/>
        <edge id="334968130#1" sampledSeconds="30.86" traveltime="1.51" overlapTraveltime="2.72" density="42.86" laneDensity="21.43" occupancy="0.42" waitingTime="13.00" timeLoss="23.24" speed="1.91" speedRelative="0.23" departed="6" arrived="5" entered="9" left="10" laneChangedFrom="1" laneChangedTo="1"/>
        <edge id="334968591#0" sampledSeconds="24.15" traveltime="6.34" overlapTraveltime="6.93" density="0.19" laneDensity="0.10" occupancy="0.05" waitingTime="0.00" timeLoss="7.89" speed="5.70" speedRelative="0.68" departed="4" arrived="0" entered="0" left="4" laneChangedFrom="0" laneChangedTo="0"/>
        <edge id="334968591#1" sampledSeconds="565.74" traveltime="11.97" overlapTraveltime="12.66" density="1.78" laneDensity="0.89" occupancy="0.42" waitingTime="0.00" timeLoss="53.16" speed="7.37" speedRelative="0.88" departed="5" arrived="3" entered="40" left="42" laneChangedFrom="10" laneChangedTo="10"/>
        <edge id="334968591#2" sampledSeconds="71.01" traveltime="1.07" overlapTraveltime="1.78" density="2.70" laneDensity="1.35" occupancy="0.42" waitingTime="0.00" timeLoss="10.63" speed="6.91" speedRelative="0.83" departed="4" arrived="9" entered="39" left="34" laneChangedFrom="0" laneChangedTo="0"/>
        <edge id="334968591#3" sampledSeconds="387.05" traveltime="9.37" overlapTraveltime="10.04" density="1.57" laneDensity="0.79" occupancy="0.37" waitingTime="0.00" timeLoss="40.01" speed="7.31" speedRelative="0.88" departed="5" arrived="5" entered="34" left="34" laneChangedFrom="5" laneChangedTo="5"/>
        <edge id="337277984#0" sampledSeconds="92.44" traveltime="18.55" overlapTraveltime="19.30" density="0.22" laneDensity="0.11" occupancy="0.05" waitingTime="0.00" timeLoss="15.36" speed="6.26" speedRelative="0.75" departed="5" arrived="0" entered="0" left="5" laneChangedFrom="0" laneChangedTo="0"/>
        <edge id="337277984#1" sampledSeconds="247.26" traveltime="16.27" overlapTraveltime="16.98" density="0.61" laneDensity="0.31" occupancy="0.15" waitingTime="0.00" timeLoss="37.59" speed="6.92" speedRelative="0.83" departed="10" arrived="0" entered="5" left="15" laneChangedFrom="0" laneChangedTo="0"/>
        <edge id="337277984#2" sampledSeconds="320.73" traveltime="15.47" overlapTraveltime="16.21" density="0.80" laneDensity="0.40" occupancy="0.19" waitingTime="3.00" timeLoss="42.11" speed="7.17" speedRelative="0.86" departed="5" arrived="0" entered="15" left="20" laneChangedFrom="0" laneChangedTo="0"/>
        <edge id="337277984#3" sampledSeconds="343.43" traveltime="15.65" overlapTraveltime="16.39" density="0.83" laneDensity="0.42" occupancy="0.20" waitingTime="5.00" timeLoss="39.36" speed="7.31" speedRelative="0.88" departed="1" arrived="0" entered="20" left="21" laneChangedFrom="0" laneChangedTo="0"/>
        <edge id="337277984#4" sampledSeconds="408.33" traveltime="15.95" overlapTraveltime="16.63" density="0.96" laneDensity="0.48" occupancy="0.23" waitingTime="0.00" timeLoss="42.75" speed="7.39" speedRelative="0.89" departed="4" arrived="1" entered="21" left="23" laneChangedFrom="5" laneChangedTo="5"/>
        <edge id="337277984#5" sampledSeconds="985.52" traveltime="30.06" overlapTraveltime="31.24" density="2.63" laneDensity="1.32" occupancy="0.64" waitingTime="461.00" timeLoss="570.74" speed="3.49" speedRelative="0.42" departed="9" arrived="0" entered="23" left="32" laneChangedFrom="30" laneChangedTo="30"/>
        <edge id="337277984#6" sampledSeconds="1568.50" traveltime="31.13" overlapTraveltime="32.19" density="3.09" laneDensity="1.55" occupancy="0.75" waitingTime="538.00" timeLoss="708.41" speed="4.53" speedRelative="0.54" departed="5" arrived="7" entered="44" left="42" laneChangedFrom="8" laneChangedTo="8"/>
        <edge id="370601722#0" sampledSeconds="65.82" traveltime="9.28" overlapTraveltime="10.20" density="0.30" laneDensity="0.15" occupancy="0.07" waitingTime="1.00" timeLoss="34.16" speed="6.43" speedRelative="0.46" departed="7" arrived="0" entered="0" left="7" laneChangedFrom="0" laneChangedTo="0"/>
        <edge id="370601722#1" sampledSeconds="435.52" traveltime="8.66" overlapTraveltime="9.49" density="1.37" laneDensity="0.69" occupancy="0.32" waitingTime="0.00" timeLoss="100.53" speed="9.83" speedRelative="0.71" departed="1" arrived="4" entered="45" left="42" laneChangedFrom="0" laneChangedTo="0"/>
        <edge id="389741416" sampledSeconds="1104.80" traveltime="3.81" overlapTraveltime="4.29" density="124.25" laneDensity="62.12" occupancy="9.80" waitingTime="866.00" timeLoss="966.76" speed="1.74" speedRelative="0.13" departed="5" arrived="3" entered="255" left="256" laneChangedFrom="4" laneChangedTo="4"/>
        <edge id="389741417#0" sampledSeconds="323.79" traveltime="0.83" overlapTraveltime="1.25" density="9.59" laneDensity="4.79" occupancy="1.58" waitingTime="0.00" timeLoss="57.65" speed="11.49" speedRelative="0.83" departed="5" arrived="6" entered="256" left="255" laneChangedFrom="7" laneChangedTo="7"/>
        <edge id="389741417#1" sampledSeconds="1725.60" traveltime="5.93" overlapTraveltime="6.65" density="6.55" laneDensity="3.28" occupancy="1.51" waitingTime="112.00" timeLoss="273.19" speed="11.76" speedRelative="0.85" departed="5" arrived="5" entered="255" left="255" laneChangedFrom="30" laneChangedTo="30"/>
        <edge id="389741418" sampledSeconds="140.03" traveltime="13.27" overlapTraveltime="14.03" density="1.01" laneDensity="0.50" occupancy="0.24" waitingTime="92.00" timeLoss="108.58" speed="3.11" speedRelative="0.22" departed="0" arrived="3" entered="10" left="7" laneChangedFrom="1" laneChangedTo="1"/>
        <edge id="389741419" sampledSeconds="6314.17" traveltime="21.36" overlapTraveltime="22.18" density="16.49" laneDensity="8.24" occupancy="4.01" waitingTime="3098.00" timeLoss="3943.01" speed="5.02" speedRelative="0.36" departed="8" arrived="3" entered="277" left="282" laneChangedFrom="20" laneChangedTo="20"/>
        <edge id="398531209" sampledSeconds="10.71" traveltime="0.60" overlapTraveltime="1.82" density="1.30" laneDensity="1.30" occupancy="0.21" waitingTime="0.00" timeLoss="7.58" speed="4.01" speedRelative="0.18" departed="1" arrived="7" entered="7" left="1" laneChangedFrom="0" laneChangedTo="0"/>
        <edge id="398532019#0" sampledSeconds="310.50" traveltime="9.80" overlapTraveltime="10.47" density="0.79" laneDensity="0.40" occupancy="0.19" waitingTime="0.00" timeLoss="61.52" speed="10.87" speedRelative="0.78" departed="6" arrived="2" entered="24" left="27" laneChangedFrom="17" laneChangedTo="17"/>
        <edge id="398532019#1" sampledSeconds="118.03" traveltime="12.75" overlapTraveltime="13.11" density="0.19" laneDensity="0.10" occupancy="0.05" waitingTime="0.00" timeLoss="5.38" speed="13.48" speedRelative="0.97" departed="0" arrived="3" entered="9" left="6" laneChangedFrom="0" laneChangedTo="0"/>
        <edge id="398532019#2" sampledSeconds="69.22" traveltime="11.31" overlapTraveltime="11.69" density="0.13" laneDensity="0.06" occupancy="0.03" waitingTime="0.00" timeLoss="3.65" speed="13.36" speedRelative="0.96" departed="0" arrived="6" entered="6" left="0" laneChangedFrom="0" laneChangedTo="0"/>
        <edge id="399285450#0" sampledSeconds="230.07" traveltime="6.13" overlapTraveltime="6.82" density="1.48" laneDensity="0.74" occupancy="0.33" waitingTime="0.00" timeLoss="31.29" speed="7.08" speedRelative="0.85" departed="2" arrived="3" entered="32" left="31" laneChangedFrom="8" laneChangedTo="8"/>
        <edge id="399285450#1" sampledSeconds="263.45" traveltime="5.50" overlapTraveltime="6.28" density="1.89" laneDensity="0.95" occupancy="0.42" waitingTime="0.00" timeLoss="35.38" speed="6.95" speedRelative="0.83" departed="8" arrived="6" entered="35" left="37" laneChangedFrom="0" laneChangedTo="0"/>
        <edge id="399285450#2" sampledSeconds="341.95" traveltime="42.31" overlapTraveltime="43.01" density="0.31" laneDensity="0.15" occupancy="0.08" waitingTime="0.00" timeLoss="28.17" speed="7.32" speedRelative="0.88" departed="0" arrived="8" entered="8" left="0" laneChangedFrom="4" laneChangedTo="4"/>
        <edge id="399285452#0" sampledSeconds="157.86" traveltime="28.24" overlapTraveltime="28.84" density="0.20" laneDensity="0.10" occupancy="0.05" waitingTime="0.00" timeLoss="20.21" speed="7.81" speedRelative="0.94" departed="6" arrived="0" entered="0" left="5" laneChangedFrom="1" laneChangedTo="1"/>
        <edge id="399285452#1" sampledSeconds="118.09" traveltime="10.44" overlapTraveltime="11.12" density="0.43" laneDensity="0.22" occupancy="0.10" waitingTime="0.00" timeLoss="21.62" speed="7.24" speedRelative="0.87" departed="6" arrived="0" entered="5" left="11" laneChangedFrom="0" laneChangedTo="0"/>
        <edge id="399285452#2" sampledSeconds="366.77" traveltime="5.27" overlapTraveltime="5.95" density="2.62" laneDensity="1.31" occupancy="0.58" waitingTime="0.00" timeLoss="44.58" speed="7.37" speedRelative="0.89" departed="2" arrived="5" entered="60" left="57" laneChangedFrom="0" laneChangedTo="0"/>
        <edge id="399285452#3" sampledSeconds="805.95" traveltime="13.10" overlapTraveltime="14.12" density="5.39" laneDensity="2.69" occupancy="1.27" waitingTime="347.00" timeLoss="485.88" speed="3.30" speedRelative="0.40" departed="8" arrived="8" entered="50" left="50" laneChangedFrom="2" laneChangedTo="2"/>
        <edge id="402762621" sampledSeconds="641.42" traveltime="28.48" overlapTraveltime="30.22" density="3.19" laneDensity="3.19" occupancy="1.52" waitingTime="14.00" timeLoss="179.68" speed="2.01" speedRelative="0.72" departed="5" arrived="5" entered="17" left="17" laneChangedFrom="0" laneChangedTo="0"/>
        <edge id="402762623#0" sampledSeconds="231.35" traveltime="8.72" overlapTraveltime="11.24" density="3.51" laneDensity="3.51" occupancy="1.41" waitingTime="0.00" timeLoss="55.03" speed="2.07" speedRelative="0.75" departed="3" arrived="4" entered="19" left="18" laneChangedFrom="0" laneChangedTo="0"/>
        <edge id="402762623#1" sampledSeconds="262.46" traveltime="13.46" overlapTraveltime="15.94" density="2.62" laneDensity="2.62" occupancy="1.13" waitingTime="0.00" timeLoss="62.38" speed="2.06" speedRelative="0.74" departed="0" arrived="5" entered="18" left="12" laneChangedFrom="0" laneChangedTo="0"/>
        <edge id="40668087#0" sampledSeconds="398.91" traveltime="13.70" overlapTraveltime="14.34" density="1.05" laneDensity="1.05" occupancy="0.50" waitingTime="0.00" timeLoss="34.52" speed="7.71" speedRelative="0.93" departed="0" arrived="7" entered="28" left="21" laneChangedFrom="0" laneChangedTo="0"/>
        <edge id="40668087#1" sampledSeconds="336.03" traveltime="15.40" overlapTraveltime="16.04" density="0.77" laneDensity="0.77" occupancy="0.37" waitingTime="0.00" timeLoss="25.04" speed="7.85" speedRelative="0.94" departed="0" arrived="4" entered="21" left="17" laneChangedFrom="0" laneChangedTo="0"/>
        <edge id="40668087#2" sampledSeconds="279.11" traveltime="15.66" overlapTraveltime="16.46" density="0.69" laneDensity="0.69" occupancy="0.33" waitingTime="12.00" timeLoss="42.55" speed="7.18" speedRelative="0.86" departed="0" arrived="2" entered="17" left="15" laneChangedFrom="0" laneChangedTo="0"/>