<?xml version="1.0" encoding="UTF-8"?>

<!-- generated on 2024-07-08 22:11:40 by Eclipse SUMO GUI Version v1_19_0+1520-dc4640af2ac
<configuration xmlns:xsi="http://www.w3.org/2001/XMLSchema-instance" xsi:noNamespaceSchemaLocation="http://sumo.dlr.de/xsd/sumoConfiguration.xsd">

    <input>
        <net-file value="/home/edwin/Documents/Repositorio-EdwinTel2024/ModeladoAvHuaynacapac/huaynacapac.net.xml"/>
        <route-files value="/home/edwin/Documents/Repositorio-EdwinTel2024/ModeladoAvHuaynacapac/mapa.rou.xml"/>
        <additional-files value="/home/edwin/Documents/Repositorio-EdwinTel2024/ModeladoAvHuaynacapac/huaynacapac.poly.xml,/home/edwin/Documents/Repositorio-EdwinTel2024/ModeladoAvHuaynacapac/detectores.add.xml"/>
    </input>

    <output>
        <emission-output value="/home/edwin/Documents/Repositorio-EdwinTel2024/ModeladoAvHuaynacapac/co2.xml"/>
        <fcd-output value="/home/edwin/Documents/Repositorio-EdwinTel2024/ModeladoAvHuaynacapac/fcd.xml"/>
        <tripinfo-output value="/home/edwin/Documents/Repositorio-EdwinTel2024/ModeladoAvHuaynacapac/tripinfo.xml"/>
        <edgedata-output value="/home/edwin/Documents/Repositorio-EdwinTel2024/ModeladoAvHuaynacapac/edgedata.xml"/>
    </output>

    <time>
        <begin value="0"/>
        <end value="3600"/>
        <step-length value="1"/>
    </time>

    <processing>
        <ignore-route-errors value="true"/>
    </processing>

    <emissions>
        <device.emissions.probability value="1"/>
    </emissions>

</configuration>
-->

<fcd-export xmlns:xsi="http://www.w3.org/2001/XMLSchema-instance" xsi:noNamespaceSchemaLocation="http://sumo.dlr.de/xsd/fcd_file.xsd">
</fcd-export>
