<?xml version="1.0" encoding="UTF-8"?>

<!-- generated on 2024-07-04 00:20:12 by Eclipse SUMO GUI Version v1_19_0+1520-dc4640af2ac
<configuration xmlns:xsi="http://www.w3.org/2001/XMLSchema-instance" xsi:noNamespaceSchemaLocation="http://sumo.dlr.de/xsd/sumoConfiguration.xsd">

    <input>
        <net-file value="/home/edwin/Documents/ProyectoFinal/ModeladoAvHuaynacapac/huaynacapac.net.xml"/>
        <route-files value="/home/edwin/Documents/ProyectoFinal/ModeladoAvHuaynacapac/rutasflujo.rou.xml"/>
        <additional-files value="/home/edwin/Documents/ProyectoFinal/ModeladoAvHuaynacapac/huaynacapac.poly.xml,/home/edwin/Documents/ProyectoFinal/ModeladoAvHuaynacapac/detectores.add.xml"/>
    </input>

    <output>
        <emission-output value="/home/edwin/Documents/ProyectoFinal/ModeladoAvHuaynacapac/co2.xml"/>
        <fcd-output value="/home/edwin/Documents/ProyectoFinal/ModeladoAvHuaynacapac/fcd.xml"/>
        <tripinfo-output value="/home/edwin/Documents/ProyectoFinal/ModeladoAvHuaynacapac/tripinfo.xml"/>
        <edgedata-output value="/home/edwin/Documents/ProyectoFinal/ModeladoAvHuaynacapac/edgedata.xml"/>
    </output>

    <time>
        <begin value="0"/>
        <end value="3600"/>
        <step-length value="1"/>
    </time>

    <processing>
        <ignore-route-errors value="true"/>
    </processing>

    <emissions>
        <device.emissions.probability value="1"/>
    </emissions>

</configuration>
-->

<fcd-export xmlns:xsi="http://www.w3.org/2001/XMLSchema-instance" xsi:noNamespaceSchemaLocation="http://sumo.dlr.de/xsd/fcd_file.xsd">
    <timestep time="0.00">
        <vehicle id="f_0.0" x="1870.98" y="349.10" angle="107.21" type="DEFAULT_VEHTYPE" speed="0.00" pos="5.10" lane="893257053_0" slope="0.00"/>
    </timestep>
    <timestep time="1.00">
        <vehicle id="f_0.0" x="1873.03" y="348.47" angle="107.21" type="DEFAULT_VEHTYPE" speed="2.14" pos="7.24" lane="893257053_0" slope="0.00"/>
    </timestep>
    <timestep time="2.00">
        <vehicle id="f_0.0" x="1876.42" y="347.42" angle="107.21" type="DEFAULT_VEHTYPE" speed="3.55" pos="10.79" lane="893257053_0" slope="0.00"/>
    </timestep>
    <timestep time="3.00">
        <vehicle id="f_0.0" x="1881.28" y="345.91" angle="107.21" type="DEFAULT_VEHTYPE" speed="5.09" pos="15.88" lane="893257053_0" slope="0.00"/>
        <vehicle id="f_1.0" x="1870.98" y="349.10" angle="107.21" type="DEFAULT_VEHTYPE" speed="0.00" pos="5.10" lane="893257053_0" slope="0.00"/>
    </timestep>
    <timestep time="4.00">
        <vehicle id="f_0.0" x="1887.69" y="343.92" angle="107.21" type="DEFAULT_VEHTYPE" speed="6.71" pos="22.59" lane="893257053_0" slope="0.00"/>
        <vehicle id="f_1.0" x="1873.79" y="351.58" angle="107.22" type="DEFAULT_VEHTYPE" speed="1.95" pos="7.05" lane="893257053_1" slope="0.00"/>
    </timestep>
    <timestep time="5.00">
        <vehicle id="f_0.0" x="1895.66" y="341.45" angle="107.23" type="DEFAULT_VEHTYPE" speed="8.35" pos="30.94" lane="893257053_0" slope="0.00"/>
        <vehicle id="f_1.0" x="1877.90" y="350.31" angle="107.22" type="DEFAULT_VEHTYPE" speed="4.31" pos="11.35" lane="893257053_1" slope="0.00"/>
    </timestep>
    <timestep time="6.00">
        <vehicle id="f_0.0" x="1899.90" y="340.14" angle="107.28" type="DEFAULT_VEHTYPE" speed="4.43" pos="35.37" lane="893257053_0" slope="0.00"/>
        <vehicle id="f_1.0" x="1883.32" y="348.63" angle="107.22" type="DEFAULT_VEHTYPE" speed="5.67" pos="17.02" lane="893257053_1" slope="0.00"/>
    </timestep>
    <timestep time="7.00">
        <vehicle id="f_0.0" x="1900.97" y="339.80" angle="107.28" type="DEFAULT_VEHTYPE" speed="1.13" pos="36.50" lane="893257053_0" slope="0.00"/>
        <vehicle id="f_1.0" x="1889.85" y="346.61" angle="107.22" type="DEFAULT_VEHTYPE" speed="6.84" pos="23.86" lane="893257053_1" slope="0.00"/>
    </timestep>
    <timestep time="8.00">
        <vehicle id="f_0.0" x="1901.50" y="339.64" angle="107.28" type="DEFAULT_VEHTYPE" speed="0.55" pos="37.05" lane="893257053_0" slope="0.00"/>
        <vehicle id="f_1.0" x="1896.48" y="344.55" angle="107.23" type="DEFAULT_VEHTYPE" speed="6.94" pos="30.80" lane="893257053_1" slope="0.00"/>
    </timestep>
    <timestep time="9.00">
        <vehicle id="f_0.0" x="1901.54" y="339.62" angle="107.28" type="DEFAULT_VEHTYPE" speed="0.04" pos="37.10" lane="893257053_0" slope="0.00"/>
        <vehicle id="f_1.0" x="1900.82" y="343.20" angle="107.26" type="DEFAULT_VEHTYPE" speed="4.54" pos="35.34" lane="893257053_1" slope="0.00"/>
        <vehicle id="f_1.1" x="1870.98" y="349.10" angle="107.21" type="DEFAULT_VEHTYPE" speed="0.00" pos="5.10" lane="893257053_0" slope="0.00"/>
    </timestep>
    <timestep time="10.00">
        <vehicle id="f_0.0" x="1901.55" y="339.62" angle="107.28" type="DEFAULT_VEHTYPE" speed="0.01" pos="37.11" lane="893257053_0" slope="0.00"/>
        <vehicle id="f_1.0" x="1902.30" y="342.74" angle="107.26" type="DEFAULT_VEHTYPE" speed="1.55" pos="36.89" lane="893257053_1" slope="0.00"/>
        <vehicle id="f_1.1" x="1874.28" y="351.43" angle="107.22" type="DEFAULT_VEHTYPE" speed="2.46" pos="7.56" lane="893257053_1" slope="0.00"/>
    </timestep>
    <timestep time="11.00">
        <vehicle id="f_0.0" x="1901.56" y="339.62" angle="107.28" type="DEFAULT_VEHTYPE" speed="0.01" pos="37.11" lane="893257053_0" slope="0.00"/>
        <vehicle id="f_1.0" x="1902.47" y="342.69" angle="107.26" type="DEFAULT_VEHTYPE" speed="0.18" pos="37.07" lane="893257053_1" slope="0.00"/>
        <vehicle id="f_1.1" x="1878.84" y="350.02" angle="107.22" type="DEFAULT_VEHTYPE" speed="4.77" pos="12.33" lane="893257053_1" slope="0.00"/>
    </timestep>
    <timestep time="12.00">
        <vehicle id="f_0.0" x="1901.56" y="339.62" angle="107.28" type="DEFAULT_VEHTYPE" speed="0.01" pos="37.12" lane="893257053_0" slope="0.00"/>
        <vehicle id="f_1.0" x="1902.51" y="342.68" angle="107.26" type="DEFAULT_VEHTYPE" speed="0.04" pos="37.12" lane="893257053_1" slope="0.00"/>
        <vehicle id="f_1.1" x="1885.29" y="348.02" angle="107.22" type="DEFAULT_VEHTYPE" speed="6.75" pos="19.08" lane="893257053_1" slope="0.00"/>
    </timestep>
    <timestep time="13.00">
        <vehicle id="f_0.0" x="1901.56" y="339.62" angle="107.28" type="DEFAULT_VEHTYPE" speed="0.00" pos="37.12" lane="893257053_0" slope="0.00"/>
        <vehicle id="f_1.0" x="1902.51" y="342.68" angle="107.26" type="DEFAULT_VEHTYPE" speed="0.00" pos="37.12" lane="893257053_1" slope="0.00"/>
        <vehicle id="f_1.1" x="1891.49" y="346.10" angle="107.22" type="DEFAULT_VEHTYPE" speed="6.50" pos="25.58" lane="893257053_1" slope="0.00"/>
    </timestep>
    <timestep time="14.00">
        <vehicle id="f_0.0" x="1901.56" y="339.62" angle="107.28" type="DEFAULT_VEHTYPE" speed="0.00" pos="37.12" lane="893257053_0" slope="0.00"/>
        <vehicle id="f_1.0" x="1902.51" y="342.68" angle="107.26" type="DEFAULT_VEHTYPE" speed="0.00" pos="37.12" lane="893257053_1" slope="0.00"/>
        <vehicle id="f_1.1" x="1894.78" y="345.08" angle="107.22" type="DEFAULT_VEHTYPE" speed="3.44" pos="29.02" lane="893257053_1" slope="0.00"/>
    </timestep>
    <timestep time="15.00">
        <vehicle id="f_0.0" x="1901.56" y="339.62" angle="107.28" type="DEFAULT_VEHTYPE" speed="0.00" pos="37.12" lane="893257053_0" slope="0.00"/>
        <vehicle id="f_1.0" x="1902.51" y="342.68" angle="107.26" type="DEFAULT_VEHTYPE" speed="0.00" pos="37.12" lane="893257053_1" slope="0.00"/>
        <vehicle id="f_1.1" x="1895.10" y="344.98" angle="107.22" type="DEFAULT_VEHTYPE" speed="0.34" pos="29.36" lane="893257053_1" slope="0.00"/>
    </timestep>
    <timestep time="16.00">
        <vehicle id="f_0.0" x="1901.56" y="339.62" angle="107.28" type="DEFAULT_VEHTYPE" speed="0.00" pos="37.12" lane="893257053_0" slope="0.00"/>
        <vehicle id="f_1.0" x="1902.51" y="342.68" angle="107.26" type="DEFAULT_VEHTYPE" speed="0.00" pos="37.12" lane="893257053_1" slope="0.00"/>
        <vehicle id="f_1.1" x="1895.25" y="344.93" angle="107.22" type="DEFAULT_VEHTYPE" speed="0.16" pos="29.52" lane="893257053_1" slope="0.00"/>
    </timestep>
    <timestep time="17.00">
        <vehicle id="f_0.0" x="1901.56" y="339.62" angle="107.28" type="DEFAULT_VEHTYPE" speed="0.00" pos="37.12" lane="893257053_0" slope="0.00"/>
        <vehicle id="f_1.0" x="1902.51" y="342.68" angle="107.26" type="DEFAULT_VEHTYPE" speed="0.00" pos="37.12" lane="893257053_1" slope="0.00"/>
        <vehicle id="f_1.1" x="1895.31" y="344.92" angle="107.22" type="DEFAULT_VEHTYPE" speed="0.06" pos="29.57" lane="893257053_1" slope="0.00"/>
    </timestep>
    <timestep time="18.00">
        <vehicle id="f_0.0" x="1901.56" y="339.62" angle="107.28" type="DEFAULT_VEHTYPE" speed="0.00" pos="37.12" lane="893257053_0" slope="0.00"/>
        <vehicle id="f_1.0" x="1902.51" y="342.68" angle="107.26" type="DEFAULT_VEHTYPE" speed="0.00" pos="37.12" lane="893257053_1" slope="0.00"/>
        <vehicle id="f_1.1" x="1895.35" y="344.90" angle="107.22" type="DEFAULT_VEHTYPE" speed="0.04" pos="29.61" lane="893257053_1" slope="0.00"/>
        <vehicle id="f_1.2" x="1870.98" y="349.10" angle="107.21" type="DEFAULT_VEHTYPE" speed="0.00" pos="5.10" lane="893257053_0" slope="0.00"/>
    </timestep>
    <timestep time="19.00">
        <vehicle id="f_0.0" x="1901.56" y="339.62" angle="107.28" type="DEFAULT_VEHTYPE" speed="0.00" pos="37.12" lane="893257053_0" slope="0.00"/>
        <vehicle id="f_1.0" x="1902.51" y="342.68" angle="107.26" type="DEFAULT_VEHTYPE" speed="0.00" pos="37.12" lane="893257053_1" slope="0.00"/>
        <vehicle id="f_1.1" x="1895.35" y="344.90" angle="107.22" type="DEFAULT_VEHTYPE" speed="0.00" pos="29.62" lane="893257053_1" slope="0.00"/>
        <vehicle id="f_1.2" x="1873.40" y="351.71" angle="107.22" type="DEFAULT_VEHTYPE" speed="1.53" pos="6.63" lane="893257053_1" slope="0.00"/>
    </timestep>
    <timestep time="20.00">
        <vehicle id="f_0.0" x="1901.56" y="339.62" angle="107.28" type="DEFAULT_VEHTYPE" speed="0.00" pos="37.12" lane="893257053_0" slope="0.00"/>
        <vehicle id="f_1.0" x="1902.51" y="342.68" angle="107.26" type="DEFAULT_VEHTYPE" speed="0.00" pos="37.12" lane="893257053_1" slope="0.00"/>
        <vehicle id="f_1.1" x="1895.35" y="344.90" angle="107.22" type="DEFAULT_VEHTYPE" speed="0.00" pos="29.62" lane="893257053_1" slope="0.00"/>
        <vehicle id="f_1.2" x="1877.15" y="350.54" angle="107.22" type="DEFAULT_VEHTYPE" speed="3.93" pos="10.56" lane="893257053_1" slope="0.00"/>
    </timestep>
    <timestep time="21.00">
        <vehicle id="f_0.0" x="1901.56" y="339.62" angle="107.28" type="DEFAULT_VEHTYPE" speed="0.00" pos="37.12" lane="893257053_0" slope="0.00"/>
        <vehicle id="f_1.0" x="1902.51" y="342.68" angle="107.26" type="DEFAULT_VEHTYPE" speed="0.00" pos="37.12" lane="893257053_1" slope="0.00"/>
        <vehicle id="f_1.1" x="1895.35" y="344.90" angle="107.22" type="DEFAULT_VEHTYPE" speed="0.00" pos="29.62" lane="893257053_1" slope="0.00"/>
        <vehicle id="f_1.2" x="1882.42" y="348.91" angle="107.22" type="DEFAULT_VEHTYPE" speed="5.52" pos="16.08" lane="893257053_1" slope="0.00"/>
    </timestep>
    <timestep time="22.00">
        <vehicle id="f_0.0" x="1901.56" y="339.62" angle="107.28" type="DEFAULT_VEHTYPE" speed="0.00" pos="37.12" lane="893257053_0" slope="0.00"/>
        <vehicle id="f_1.0" x="1902.51" y="342.68" angle="107.26" type="DEFAULT_VEHTYPE" speed="0.00" pos="37.12" lane="893257053_1" slope="0.00"/>
        <vehicle id="f_1.1" x="1895.35" y="344.90" angle="107.22" type="DEFAULT_VEHTYPE" speed="0.00" pos="29.62" lane="893257053_1" slope="0.00"/>
        <vehicle id="f_1.2" x="1886.75" y="347.57" angle="107.22" type="DEFAULT_VEHTYPE" speed="4.53" pos="20.61" lane="893257053_1" slope="0.00"/>
    </timestep>
    <timestep time="23.00">
        <vehicle id="f_0.0" x="1901.56" y="339.62" angle="107.28" type="DEFAULT_VEHTYPE" speed="0.00" pos="37.12" lane="893257053_0" slope="0.00"/>
        <vehicle id="f_1.0" x="1902.51" y="342.68" angle="107.26" type="DEFAULT_VEHTYPE" speed="0.00" pos="37.12" lane="893257053_1" slope="0.00"/>
        <vehicle id="f_1.1" x="1895.35" y="344.90" angle="107.22" type="DEFAULT_VEHTYPE" speed="0.00" pos="29.62" lane="893257053_1" slope="0.00"/>
        <vehicle id="f_1.2" x="1887.93" y="347.20" angle="107.22" type="DEFAULT_VEHTYPE" speed="1.24" pos="21.85" lane="893257053_1" slope="0.00"/>
    </timestep>
    <timestep time="24.00">
        <vehicle id="f_0.0" x="1901.56" y="339.62" angle="107.28" type="DEFAULT_VEHTYPE" speed="0.00" pos="37.12" lane="893257053_0" slope="0.00"/>
        <vehicle id="f_1.0" x="1902.51" y="342.68" angle="107.26" type="DEFAULT_VEHTYPE" speed="0.00" pos="37.12" lane="893257053_1" slope="0.00"/>
        <vehicle id="f_1.1" x="1895.35" y="344.90" angle="107.22" type="DEFAULT_VEHTYPE" speed="0.00" pos="29.62" lane="893257053_1" slope="0.00"/>
        <vehicle id="f_1.2" x="1888.18" y="347.12" angle="107.22" type="DEFAULT_VEHTYPE" speed="0.26" pos="22.11" lane="893257053_1" slope="0.00"/>
    </timestep>
    <timestep time="25.00">
        <vehicle id="f_0.0" x="1901.56" y="339.62" angle="107.28" type="DEFAULT_VEHTYPE" speed="0.00" pos="37.12" lane="893257053_0" slope="0.00"/>
        <vehicle id="f_1.0" x="1902.51" y="342.68" angle="107.26" type="DEFAULT_VEHTYPE" speed="0.00" pos="37.12" lane="893257053_1" slope="0.00"/>
        <vehicle id="f_1.1" x="1895.35" y="344.90" angle="107.22" type="DEFAULT_VEHTYPE" speed="0.00" pos="29.62" lane="893257053_1" slope="0.00"/>
        <vehicle id="f_1.2" x="1888.19" y="347.12" angle="107.22" type="DEFAULT_VEHTYPE" speed="0.01" pos="22.12" lane="893257053_1" slope="0.00"/>
    </timestep>
    <timestep time="26.00">
        <vehicle id="f_0.0" x="1901.56" y="339.62" angle="107.28" type="DEFAULT_VEHTYPE" speed="0.00" pos="37.12" lane="893257053_0" slope="0.00"/>
        <vehicle id="f_1.0" x="1902.51" y="342.68" angle="107.26" type="DEFAULT_VEHTYPE" speed="0.00" pos="37.12" lane="893257053_1" slope="0.00"/>
        <vehicle id="f_1.1" x="1895.35" y="344.90" angle="107.22" type="DEFAULT_VEHTYPE" speed="0.00" pos="29.62" lane="893257053_1" slope="0.00"/>
        <vehicle id="f_1.2" x="1888.19" y="347.12" angle="107.22" type="DEFAULT_VEHTYPE" speed="0.00" pos="22.12" lane="893257053_1" slope="0.00"/>
    </timestep>
    <timestep time="27.00">
        <vehicle id="f_0.0" x="1901.56" y="339.62" angle="107.28" type="DEFAULT_VEHTYPE" speed="0.00" pos="37.12" lane="893257053_0" slope="0.00"/>
        <vehicle id="f_1.0" x="1902.51" y="342.68" angle="107.26" type="DEFAULT_VEHTYPE" speed="0.00" pos="37.12" lane="893257053_1" slope="0.00"/>
        <vehicle id="f_1.1" x="1895.35" y="344.90" angle="107.22" type="DEFAULT_VEHTYPE" speed="0.00" pos="29.62" lane="893257053_1" slope="0.00"/>
        <vehicle id="f_1.2" x="1888.19" y="347.12" angle="107.22" type="DEFAULT_VEHTYPE" speed="0.00" pos="22.12" lane="893257053_1" slope="0.00"/>
        <vehicle id="f_1.3" x="1870.98" y="349.10" angle="107.21" type="DEFAULT_VEHTYPE" speed="0.00" pos="5.10" lane="893257053_0" slope="0.00"/>
    </timestep>
    <timestep time="28.00">
        <vehicle id="f_0.0" x="1901.56" y="339.62" angle="107.28" type="DEFAULT_VEHTYPE" speed="0.00" pos="37.12" lane="893257053_0" slope="0.00"/>
        <vehicle id="f_1.0" x="1902.51" y="342.68" angle="107.26" type="DEFAULT_VEHTYPE" speed="0.00" pos="37.12" lane="893257053_1" slope="0.00"/>
        <vehicle id="f_1.1" x="1895.35" y="344.90" angle="107.22" type="DEFAULT_VEHTYPE" speed="0.00" pos="29.62" lane="893257053_1" slope="0.00"/>
        <vehicle id="f_1.2" x="1888.19" y="347.12" angle="107.22" type="DEFAULT_VEHTYPE" speed="0.00" pos="22.12" lane="893257053_1" slope="0.00"/>
        <vehicle id="f_1.3" x="1873.43" y="351.70" angle="107.22" type="DEFAULT_VEHTYPE" speed="1.57" pos="6.67" lane="893257053_1" slope="0.00"/>
    </timestep>
    <timestep time="29.00">
        <vehicle id="f_0.0" x="1901.56" y="339.62" angle="107.28" type="DEFAULT_VEHTYPE" speed="0.00" pos="37.12" lane="893257053_0" slope="0.00"/>
        <vehicle id="f_1.0" x="1902.51" y="342.68" angle="107.26" type="DEFAULT_VEHTYPE" speed="0.00" pos="37.12" lane="893257053_1" slope="0.00"/>
        <vehicle id="f_1.1" x="1895.35" y="344.90" angle="107.22" type="DEFAULT_VEHTYPE" speed="0.00" pos="29.62" lane="893257053_1" slope="0.00"/>
        <vehicle id="f_1.2" x="1888.19" y="347.12" angle="107.22" type="DEFAULT_VEHTYPE" speed="0.00" pos="22.12" lane="893257053_1" slope="0.00"/>
        <vehicle id="f_1.3" x="1877.23" y="350.52" angle="107.22" type="DEFAULT_VEHTYPE" speed="3.97" pos="10.64" lane="893257053_1" slope="0.00"/>
    </timestep>
    <timestep time="30.00">
        <vehicle id="f_0.0" x="1901.56" y="339.62" angle="107.28" type="DEFAULT_VEHTYPE" speed="0.00" pos="37.12" lane="893257053_0" slope="0.00"/>
        <vehicle id="f_1.0" x="1902.51" y="342.68" angle="107.26" type="DEFAULT_VEHTYPE" speed="0.00" pos="37.12" lane="893257053_1" slope="0.00"/>
        <vehicle id="f_1.1" x="1895.35" y="344.90" angle="107.22" type="DEFAULT_VEHTYPE" speed="0.00" pos="29.62" lane="893257053_1" slope="0.00"/>
        <vehicle id="f_1.2" x="1888.19" y="347.12" angle="107.22" type="DEFAULT_VEHTYPE" speed="0.00" pos="22.12" lane="893257053_1" slope="0.00"/>
        <vehicle id="f_1.3" x="1880.96" y="349.36" angle="107.22" type="DEFAULT_VEHTYPE" speed="3.90" pos="14.55" lane="893257053_1" slope="0.00"/>
    </timestep>
    <timestep time="31.00">
        <vehicle id="f_0.0" x="1901.56" y="339.62" angle="107.28" type="DEFAULT_VEHTYPE" speed="0.00" pos="37.12" lane="893257053_0" slope="0.00"/>
        <vehicle id="f_1.0" x="1902.51" y="342.68" angle="107.26" type="DEFAULT_VEHTYPE" speed="0.00" pos="37.12" lane="893257053_1" slope="0.00"/>
        <vehicle id="f_1.1" x="1895.35" y="344.90" angle="107.22" type="DEFAULT_VEHTYPE" speed="0.00" pos="29.62" lane="893257053_1" slope="0.00"/>
        <vehicle id="f_1.2" x="1888.19" y="347.12" angle="107.22" type="DEFAULT_VEHTYPE" speed="0.00" pos="22.12" lane="893257053_1" slope="0.00"/>
        <vehicle id="f_1.3" x="1881.01" y="349.35" angle="107.22" type="DEFAULT_VEHTYPE" speed="0.06" pos="14.60" lane="893257053_1" slope="0.00"/>
    </timestep>
    <timestep time="32.00">
        <vehicle id="f_0.0" x="1901.56" y="339.62" angle="107.28" type="DEFAULT_VEHTYPE" speed="0.00" pos="37.12" lane="893257053_0" slope="0.00"/>
        <vehicle id="f_1.0" x="1902.51" y="342.68" angle="107.26" type="DEFAULT_VEHTYPE" speed="0.00" pos="37.12" lane="893257053_1" slope="0.00"/>
        <vehicle id="f_1.1" x="1895.35" y="344.90" angle="107.22" type="DEFAULT_VEHTYPE" speed="0.00" pos="29.62" lane="893257053_1" slope="0.00"/>
        <vehicle id="f_1.2" x="1888.19" y="347.12" angle="107.22" type="DEFAULT_VEHTYPE" speed="0.00" pos="22.12" lane="893257053_1" slope="0.00"/>
        <vehicle id="f_1.3" x="1881.02" y="349.34" angle="107.22" type="DEFAULT_VEHTYPE" speed="0.01" pos="14.61" lane="893257053_1" slope="0.00"/>
    </timestep>
    <timestep time="33.00">
        <vehicle id="f_0.0" x="1901.56" y="339.62" angle="107.28" type="DEFAULT_VEHTYPE" speed="0.00" pos="37.12" lane="893257053_0" slope="0.00"/>
        <vehicle id="f_1.0" x="1902.51" y="342.68" angle="107.26" type="DEFAULT_VEHTYPE" speed="0.00" pos="37.12" lane="893257053_1" slope="0.00"/>
        <vehicle id="f_1.1" x="1895.35" y="344.90" angle="107.22" type="DEFAULT_VEHTYPE" speed="0.00" pos="29.62" lane="893257053_1" slope="0.00"/>
        <vehicle id="f_1.2" x="1888.19" y="347.12" angle="107.22" type="DEFAULT_VEHTYPE" speed="0.00" pos="22.12" lane="893257053_1" slope="0.00"/>
        <vehicle id="f_1.3" x="1881.02" y="349.34" angle="107.22" type="DEFAULT_VEHTYPE" speed="0.00" pos="14.61" lane="893257053_1" slope="0.00"/>
    </timestep>
    <timestep time="34.00">
        <vehicle id="f_0.0" x="1901.56" y="339.62" angle="107.28" type="DEFAULT_VEHTYPE" speed="0.00" pos="37.12" lane="893257053_0" slope="0.00"/>
        <vehicle id="f_1.0" x="1902.51" y="342.68" angle="107.26" type="DEFAULT_VEHTYPE" speed="0.00" pos="37.12" lane="893257053_1" slope="0.00"/>
        <vehicle id="f_1.1" x="1895.35" y="344.90" angle="107.22" type="DEFAULT_VEHTYPE" speed="0.00" pos="29.62" lane="893257053_1" slope="0.00"/>
        <vehicle id="f_1.2" x="1888.19" y="347.12" angle="107.22" type="DEFAULT_VEHTYPE" speed="0.00" pos="22.12" lane="893257053_1" slope="0.00"/>
        <vehicle id="f_1.3" x="1881.02" y="349.34" angle="107.22" type="DEFAULT_VEHTYPE" speed="0.00" pos="14.62" lane="893257053_1" slope="0.00"/>
    </timestep>
    <timestep time="35.00">
        <vehicle id="f_0.0" x="1901.56" y="339.62" angle="107.28" type="DEFAULT_VEHTYPE" speed="0.00" pos="37.12" lane="893257053_0" slope="0.00"/>
        <vehicle id="f_1.0" x="1902.51" y="342.68" angle="107.26" type="DEFAULT_VEHTYPE" speed="0.00" pos="37.12" lane="893257053_1" slope="0.00"/>
        <vehicle id="f_1.1" x="1895.35" y="344.90" angle="107.22" type="DEFAULT_VEHTYPE" speed="0.00" pos="29.62" lane="893257053_1" slope="0.00"/>
        <vehicle id="f_1.2" x="1888.19" y="347.12" angle="107.22" type="DEFAULT_VEHTYPE" speed="0.00" pos="22.12" lane="893257053_1" slope="0.00"/>
        <vehicle id="f_1.3" x="1881.02" y="349.34" angle="107.22" type="DEFAULT_VEHTYPE" speed="0.00" pos="14.62" lane="893257053_1" slope="0.00"/>
    </timestep>
    <timestep time="36.00">
        <vehicle id="f_0.0" x="1901.56" y="339.62" angle="107.28" type="DEFAULT_VEHTYPE" speed="0.00" pos="37.12" lane="893257053_0" slope="0.00"/>
        <vehicle id="f_0.1" x="1870.98" y="349.10" angle="107.21" type="DEFAULT_VEHTYPE" speed="0.00" pos="5.10" lane="893257053_0" slope="0.00"/>
        <vehicle id="f_1.0" x="1902.51" y="342.68" angle="107.26" type="DEFAULT_VEHTYPE" speed="0.00" pos="37.12" lane="893257053_1" slope="0.00"/>
        <vehicle id="f_1.1" x="1895.35" y="344.90" angle="107.22" type="DEFAULT_VEHTYPE" speed="0.00" pos="29.62" lane="893257053_1" slope="0.00"/>
        <vehicle id="f_1.2" x="1888.19" y="347.12" angle="107.22" type="DEFAULT_VEHTYPE" speed="0.00" pos="22.12" lane="893257053_1" slope="0.00"/>
        <vehicle id="f_1.3" x="1881.02" y="349.34" angle="107.22" type="DEFAULT_VEHTYPE" speed="0.00" pos="14.62" lane="893257053_1" slope="0.00"/>
    </timestep>
    <timestep time="37.00">
        <vehicle id="f_0.0" x="1901.56" y="339.62" angle="107.28" type="DEFAULT_VEHTYPE" speed="0.00" pos="37.12" lane="893257053_0" slope="0.00"/>
        <vehicle id="f_0.1" x="1873.03" y="348.47" angle="107.21" type="DEFAULT_VEHTYPE" speed="2.14" pos="7.24" lane="893257053_0" slope="0.00"/>
        <vehicle id="f_1.0" x="1902.51" y="342.68" angle="107.26" type="DEFAULT_VEHTYPE" speed="0.00" pos="37.12" lane="893257053_1" slope="0.00"/>
        <vehicle id="f_1.1" x="1895.35" y="344.90" angle="107.22" type="DEFAULT_VEHTYPE" speed="0.00" pos="29.62" lane="893257053_1" slope="0.00"/>
        <vehicle id="f_1.2" x="1888.19" y="347.12" angle="107.22" type="DEFAULT_VEHTYPE" speed="0.00" pos="22.12" lane="893257053_1" slope="0.00"/>
        <vehicle id="f_1.3" x="1881.02" y="349.34" angle="107.22" type="DEFAULT_VEHTYPE" speed="0.00" pos="14.62" lane="893257053_1" slope="0.00"/>
    </timestep>
    <timestep time="38.00">
        <vehicle id="f_0.0" x="1901.56" y="339.62" angle="107.28" type="DEFAULT_VEHTYPE" speed="0.00" pos="37.12" lane="893257053_0" slope="0.00"/>
        <vehicle id="f_0.1" x="1877.25" y="347.16" angle="107.21" type="DEFAULT_VEHTYPE" speed="4.43" pos="11.67" lane="893257053_0" slope="0.00"/>
        <vehicle id="f_1.0" x="1902.51" y="342.68" angle="107.26" type="DEFAULT_VEHTYPE" speed="0.00" pos="37.12" lane="893257053_1" slope="0.00"/>
        <vehicle id="f_1.1" x="1895.35" y="344.90" angle="107.22" type="DEFAULT_VEHTYPE" speed="0.00" pos="29.62" lane="893257053_1" slope="0.00"/>
        <vehicle id="f_1.2" x="1888.19" y="347.12" angle="107.22" type="DEFAULT_VEHTYPE" speed="0.00" pos="22.12" lane="893257053_1" slope="0.00"/>
        <vehicle id="f_1.3" x="1881.02" y="349.34" angle="107.22" type="DEFAULT_VEHTYPE" speed="0.00" pos="14.62" lane="893257053_1" slope="0.00"/>
    </timestep>
    <timestep time="39.00">
        <vehicle id="f_0.0" x="1901.56" y="339.62" angle="107.28" type="DEFAULT_VEHTYPE" speed="0.00" pos="37.12" lane="893257053_0" slope="0.00"/>
        <vehicle id="f_0.1" x="1883.50" y="345.22" angle="107.21" type="DEFAULT_VEHTYPE" speed="6.54" pos="18.21" lane="893257053_0" slope="0.00"/>
        <vehicle id="f_1.0" x="1902.51" y="342.68" angle="107.26" type="DEFAULT_VEHTYPE" speed="0.00" pos="37.12" lane="893257053_1" slope="0.00"/>
        <vehicle id="f_1.1" x="1895.35" y="344.90" angle="107.22" type="DEFAULT_VEHTYPE" speed="0.00" pos="29.62" lane="893257053_1" slope="0.00"/>
        <vehicle id="f_1.2" x="1888.19" y="347.12" angle="107.22" type="DEFAULT_VEHTYPE" speed="0.00" pos="22.12" lane="893257053_1" slope="0.00"/>
        <vehicle id="f_1.3" x="1881.02" y="349.34" angle="107.22" type="DEFAULT_VEHTYPE" speed="0.00" pos="14.62" lane="893257053_1" slope="0.00"/>
        <vehicle id="f_1.4" x="1870.98" y="349.10" angle="107.21" type="DEFAULT_VEHTYPE" speed="0.00" pos="5.10" lane="893257053_0" slope="0.00"/>
    </timestep>
    <timestep time="40.00">
        <vehicle id="f_0.0" x="1901.56" y="339.62" angle="107.28" type="DEFAULT_VEHTYPE" speed="0.00" pos="37.12" lane="893257053_0" slope="0.00"/>
        <vehicle id="f_0.1" x="1889.51" y="343.36" angle="107.21" type="DEFAULT_VEHTYPE" speed="6.28" pos="24.49" lane="893257053_0" slope="0.00"/>
        <vehicle id="f_1.0" x="1902.51" y="342.68" angle="107.26" type="DEFAULT_VEHTYPE" speed="0.00" pos="37.12" lane="893257053_1" slope="0.00"/>
        <vehicle id="f_1.1" x="1895.35" y="344.90" angle="107.22" type="DEFAULT_VEHTYPE" speed="0.00" pos="29.62" lane="893257053_1" slope="0.00"/>
        <vehicle id="f_1.2" x="1888.19" y="347.12" angle="107.22" type="DEFAULT_VEHTYPE" speed="0.00" pos="22.12" lane="893257053_1" slope="0.00"/>
        <vehicle id="f_1.3" x="1881.02" y="349.34" angle="107.22" type="DEFAULT_VEHTYPE" speed="0.00" pos="14.62" lane="893257053_1" slope="0.00"/>
        <vehicle id="f_1.4" x="1872.78" y="348.54" angle="107.21" type="DEFAULT_VEHTYPE" speed="1.89" pos="6.99" lane="893257053_0" slope="0.00"/>
    </timestep>
    <timestep time="41.00">
        <vehicle id="f_0.0" x="1901.56" y="339.62" angle="107.28" type="DEFAULT_VEHTYPE" speed="0.00" pos="37.12" lane="893257053_0" slope="0.00"/>
        <vehicle id="f_0.1" x="1893.21" y="342.21" angle="107.21" type="DEFAULT_VEHTYPE" speed="3.87" pos="28.37" lane="893257053_0" slope="0.00"/>
        <vehicle id="f_1.0" x="1902.51" y="342.68" angle="107.26" type="DEFAULT_VEHTYPE" speed="0.00" pos="37.12" lane="893257053_1" slope="0.00"/>
        <vehicle id="f_1.1" x="1895.35" y="344.90" angle="107.22" type="DEFAULT_VEHTYPE" speed="0.00" pos="29.62" lane="893257053_1" slope="0.00"/>
        <vehicle id="f_1.2" x="1888.19" y="347.12" angle="107.22" type="DEFAULT_VEHTYPE" speed="0.00" pos="22.12" lane="893257053_1" slope="0.00"/>
        <vehicle id="f_1.3" x="1881.02" y="349.34" angle="107.22" type="DEFAULT_VEHTYPE" speed="0.00" pos="14.62" lane="893257053_1" slope="0.00"/>
        <vehicle id="f_1.4" x="1877.00" y="347.24" angle="107.21" type="DEFAULT_VEHTYPE" speed="4.42" pos="11.40" lane="893257053_0" slope="0.00"/>
    </timestep>
    <timestep time="42.00">
        <vehicle id="f_0.0" x="1901.56" y="339.62" angle="107.28" type="DEFAULT_VEHTYPE" speed="0.00" pos="37.12" lane="893257053_0" slope="0.00"/>
        <vehicle id="f_0.1" x="1894.27" y="341.89" angle="107.21" type="DEFAULT_VEHTYPE" speed="1.11" pos="29.48" lane="893257053_0" slope="0.00"/>
        <vehicle id="f_1.0" x="1902.51" y="342.68" angle="107.26" type="DEFAULT_VEHTYPE" speed="0.00" pos="37.12" lane="893257053_1" slope="0.00"/>
        <vehicle id="f_1.1" x="1895.35" y="344.90" angle="107.22" type="DEFAULT_VEHTYPE" speed="0.00" pos="29.62" lane="893257053_1" slope="0.00"/>
        <vehicle id="f_1.2" x="1888.19" y="347.12" angle="107.22" type="DEFAULT_VEHTYPE" speed="0.00" pos="22.12" lane="893257053_1" slope="0.00"/>
        <vehicle id="f_1.3" x="1881.02" y="349.34" angle="107.22" type="DEFAULT_VEHTYPE" speed="0.00" pos="14.62" lane="893257053_1" slope="0.00"/>
        <vehicle id="f_1.4" x="1883.48" y="345.23" angle="107.21" type="DEFAULT_VEHTYPE" speed="6.78" pos="18.18" lane="893257053_0" slope="0.00"/>
    </timestep>
    <timestep time="43.00">
        <vehicle id="f_0.0" x="1901.56" y="339.62" angle="107.28" type="DEFAULT_VEHTYPE" speed="0.00" pos="37.12" lane="893257053_0" slope="0.00"/>
        <vehicle id="f_0.1" x="1894.37" y="341.85" angle="107.21" type="DEFAULT_VEHTYPE" speed="0.10" pos="29.59" lane="893257053_0" slope="0.00"/>
        <vehicle id="f_1.0" x="1902.51" y="342.68" angle="107.26" type="DEFAULT_VEHTYPE" speed="0.00" pos="37.12" lane="893257053_1" slope="0.00"/>
        <vehicle id="f_1.1" x="1895.35" y="344.90" angle="107.22" type="DEFAULT_VEHTYPE" speed="0.00" pos="29.62" lane="893257053_1" slope="0.00"/>
        <vehicle id="f_1.2" x="1888.19" y="347.12" angle="107.22" type="DEFAULT_VEHTYPE" speed="0.00" pos="22.12" lane="893257053_1" slope="0.00"/>
        <vehicle id="f_1.3" x="1881.02" y="349.34" angle="107.22" type="DEFAULT_VEHTYPE" speed="0.00" pos="14.62" lane="893257053_1" slope="0.00"/>
        <vehicle id="f_1.4" x="1886.56" y="344.27" angle="107.21" type="DEFAULT_VEHTYPE" speed="3.23" pos="21.41" lane="893257053_0" slope="0.00"/>
    </timestep>
    <timestep time="44.00">
        <vehicle id="f_0.0" x="1901.56" y="339.62" angle="107.28" type="DEFAULT_VEHTYPE" speed="0.00" pos="37.12" lane="893257053_0" slope="0.00"/>
        <vehicle id="f_0.1" x="1894.40" y="341.85" angle="107.21" type="DEFAULT_VEHTYPE" speed="0.03" pos="29.62" lane="893257053_0" slope="0.00"/>