<?xml version="1.0" encoding="UTF-8"?>

<!-- generated on 2024-07-06 15:10:27 by Eclipse SUMO sumo Version v1_19_0+1520-dc4640af2ac
<configuration xmlns:xsi="http://www.w3.org/2001/XMLSchema-instance" xsi:noNamespaceSchemaLocation="http://sumo.dlr.de/xsd/sumoConfiguration.xsd">

    <input>
        <net-file value="huaynacapac.net.xml"/>
        <route-files value="mapa.rou.xml"/>
        <additional-files value="huaynacapac.poly.xml,detectores.add.xml"/>
    </input>

    <output>
        <emission-output value="co2.xml"/>
        <fcd-output value="fcd.xml"/>
        <tripinfo-output value="tripinfo.xml"/>
        <edgedata-output value="edgedata.xml"/>
    </output>

    <time>
        <begin value="0"/>
        <end value="3600"/>
        <step-length value="1"/>
    </time>

    <processing>
        <ignore-route-errors value="true"/>
    </processing>

    <report>
        <verbose value="true"/>
    </report>

    <emissions>
        <device.emissions.probability value="1"/>
    </emissions>

</configuration>
-->

<fcd-export xmlns:xsi="http://www.w3.org/2001/XMLSchema-instance" xsi:noNamespaceSchemaLocation="http://sumo.dlr.de/xsd/fcd_file.xsd">
    <timestep time="0.00">
        <vehicle id="0" x="2213.28" y="1292.38" angle="278.72" type="DEFAULT_VEHTYPE" speed="0.00" pos="5.10" lane="45421575#1_0" slope="0.00"/>
    </timestep>
    <timestep time="1.00">
        <vehicle id="0" x="2211.97" y="1292.58" angle="278.72" type="DEFAULT_VEHTYPE" speed="1.32" pos="6.42" lane="45421575#1_0" slope="0.00"/>
    </timestep>
    <timestep time="2.00">
        <vehicle id="0" x="2208.81" y="1293.07" angle="278.72" type="DEFAULT_VEHTYPE" speed="3.20" pos="9.62" lane="45421575#1_0" slope="0.00"/>
    </timestep>
    <timestep time="3.00">
        <vehicle id="0" x="2203.63" y="1293.74" angle="277.38" type="DEFAULT_VEHTYPE" speed="5.22" pos="14.84" lane="45421575#1_0" slope="0.00"/>
    </timestep>
    <timestep time="4.00">
        <vehicle id="0" x="2196.78" y="1294.56" angle="276.80" type="DEFAULT_VEHTYPE" speed="6.90" pos="21.74" lane="45421575#1_0" slope="0.00"/>
    </timestep>
    <timestep time="5.00">
        <vehicle id="0" x="2187.65" y="1295.65" angle="276.80" type="DEFAULT_VEHTYPE" speed="9.19" pos="30.93" lane="45421575#1_0" slope="0.00"/>
    </timestep>
    <timestep time="6.00">
        <vehicle id="0" x="2176.36" y="1297.00" angle="276.80" type="DEFAULT_VEHTYPE" speed="11.36" pos="42.29" lane="45421575#1_0" slope="0.00"/>
    </timestep>
    <timestep time="7.00">
        <vehicle id="0" x="2162.17" y="1295.47" angle="276.80" type="DEFAULT_VEHTYPE" speed="13.84" pos="56.14" lane="45421575#1_1" slope="0.00"/>
    </timestep>
    <timestep time="8.00">
        <vehicle id="0" x="2148.43" y="1297.10" angle="276.80" type="DEFAULT_VEHTYPE" speed="13.84" pos="69.97" lane="45421575#1_1" slope="0.00"/>
    </timestep>
    <timestep time="9.00">
        <vehicle id="0" x="2133.89" y="1298.79" angle="276.46" type="DEFAULT_VEHTYPE" speed="14.65" pos="84.62" lane="45421575#1_1" slope="0.00"/>
    </timestep>
    <timestep time="10.00">
        <vehicle id="0" x="2119.84" y="1300.39" angle="276.46" type="DEFAULT_VEHTYPE" speed="14.15" pos="98.77" lane="45421575#1_1" slope="0.00"/>
    </timestep>
    <timestep time="11.00">
        <vehicle id="0" x="2106.50" y="1301.90" angle="276.46" type="DEFAULT_VEHTYPE" speed="13.43" pos="112.19" lane="45421575#1_1" slope="0.00"/>
    </timestep>
    <timestep time="12.00">
        <vehicle id="0" x="2092.87" y="1303.44" angle="276.46" type="DEFAULT_VEHTYPE" speed="13.72" pos="125.91" lane="45421575#1_1" slope="0.00"/>
    </timestep>
    <timestep time="13.00">
        <vehicle id="0" x="2079.51" y="1304.95" angle="276.46" type="DEFAULT_VEHTYPE" speed="13.46" pos="139.37" lane="45421575#1_1" slope="0.00"/>
    </timestep>
    <timestep time="14.00">
        <vehicle id="0" x="2065.89" y="1306.50" angle="276.46" type="DEFAULT_VEHTYPE" speed="13.71" pos="153.08" lane="45421575#1_1" slope="0.00"/>
    </timestep>
    <timestep time="15.00">
        <vehicle id="0" x="2052.36" y="1308.03" angle="276.46" type="DEFAULT_VEHTYPE" speed="13.62" pos="166.70" lane="45421575#1_1" slope="0.00"/>
    </timestep>
    <timestep time="16.00">
        <vehicle id="0" x="2038.98" y="1309.55" angle="276.46" type="DEFAULT_VEHTYPE" speed="13.47" pos="180.16" lane="45421575#1_1" slope="0.00"/>
    </timestep>
    <timestep time="17.00">
        <vehicle id="0" x="2024.47" y="1311.22" angle="276.78" type="DEFAULT_VEHTYPE" speed="14.61" pos="3.99" lane=":617105537_1_1" slope="0.00"/>
    </timestep>
    <timestep time="18.00">
        <vehicle id="0" x="2010.52" y="1312.90" angle="276.89" type="DEFAULT_VEHTYPE" speed="14.04" pos="0.38" lane="45421575#2_1" slope="0.00"/>
    </timestep>
    <timestep time="19.00">
        <vehicle id="0" x="1996.47" y="1314.70" angle="277.29" type="DEFAULT_VEHTYPE" speed="14.12" pos="14.50" lane="45421575#2_1" slope="0.00"/>
    </timestep>
    <timestep time="20.00">
        <vehicle id="0" x="1982.57" y="1316.47" angle="277.29" type="DEFAULT_VEHTYPE" speed="13.97" pos="28.47" lane="45421575#2_1" slope="0.00"/>
    </timestep>
    <timestep time="21.00">
        <vehicle id="0" x="1967.97" y="1318.34" angle="277.29" type="DEFAULT_VEHTYPE" speed="14.67" pos="43.14" lane="45421575#2_1" slope="0.00"/>
    </timestep>
    <timestep time="22.00">
        <vehicle id="0" x="1954.49" y="1320.06" angle="277.29" type="DEFAULT_VEHTYPE" speed="13.54" pos="56.68" lane="45421575#2_1" slope="0.00"/>
    </timestep>
    <timestep time="23.00">
        <vehicle id="0" x="1940.79" y="1321.82" angle="277.29" type="DEFAULT_VEHTYPE" speed="13.77" pos="70.45" lane="45421575#2_1" slope="0.00"/>
    </timestep>
    <timestep time="24.00">
        <vehicle id="0" x="1926.56" y="1323.64" angle="277.29" type="DEFAULT_VEHTYPE" speed="14.30" pos="84.75" lane="45421575#2_1" slope="0.00"/>
    </timestep>
    <timestep time="25.00">
        <vehicle id="0" x="1913.88" y="1325.26" angle="277.29" type="DEFAULT_VEHTYPE" speed="12.74" pos="97.49" lane="45421575#2_1" slope="0.00"/>
    </timestep>
    <timestep time="26.00">
        <vehicle id="0" x="1905.96" y="1327.46" angle="289.55" type="DEFAULT_VEHTYPE" speed="8.24" pos="105.73" lane="45421575#2_1" slope="0.00"/>
    </timestep>
    <timestep time="27.00">
        <vehicle id="0" x="1901.63" y="1328.92" angle="288.66" type="DEFAULT_VEHTYPE" speed="4.41" pos="3.03" lane=":8920874081_0_1" slope="0.00"/>
    </timestep>
    <timestep time="28.00">
        <vehicle id="0" x="1901.24" y="1329.09" angle="289.04" type="DEFAULT_VEHTYPE" speed="0.41" pos="3.44" lane=":8920874081_0_1" slope="0.00"/>
    </timestep>
    <timestep time="29.00">
        <vehicle id="0" x="1901.06" y="1329.18" angle="289.26" type="DEFAULT_VEHTYPE" speed="0.19" pos="3.63" lane=":8920874081_0_1" slope="0.00"/>
    </timestep>
    <timestep time="30.00">
        <vehicle id="0" x="1901.05" y="1329.18" angle="289.27" type="DEFAULT_VEHTYPE" speed="0.01" pos="3.64" lane=":8920874081_0_1" slope="0.00"/>
    </timestep>
    <timestep time="31.00">
        <vehicle id="0" x="1901.05" y="1329.18" angle="289.27" type="DEFAULT_VEHTYPE" speed="0.00" pos="3.64" lane=":8920874081_0_1" slope="0.00"/>
    </timestep>
    <timestep time="32.00">
        <vehicle id="0" x="1901.05" y="1329.18" angle="289.27" type="DEFAULT_VEHTYPE" speed="0.00" pos="3.64" lane=":8920874081_0_1" slope="0.00"/>
    </timestep>
    <timestep time="33.00">
        <vehicle id="0" x="1901.05" y="1329.18" angle="289.27" type="DEFAULT_VEHTYPE" speed="0.00" pos="3.64" lane=":8920874081_0_1" slope="0.00"/>
    </timestep>
    <timestep time="34.00">
        <vehicle id="0" x="1901.05" y="1329.18" angle="289.27" type="DEFAULT_VEHTYPE" speed="0.00" pos="3.64" lane=":8920874081_0_1" slope="0.00"/>
    </timestep>
    <timestep time="35.00">
        <vehicle id="0" x="1901.05" y="1329.18" angle="289.27" type="DEFAULT_VEHTYPE" speed="0.00" pos="3.64" lane=":8920874081_0_1" slope="0.00"/>
    </timestep>
    <timestep time="36.00">
        <vehicle id="0" x="1901.05" y="1329.18" angle="289.27" type="DEFAULT_VEHTYPE" speed="0.00" pos="3.64" lane=":8920874081_0_1" slope="0.00"/>
    </timestep>
    <timestep time="37.00">
        <vehicle id="0" x="1901.05" y="1329.18" angle="289.27" type="DEFAULT_VEHTYPE" speed="0.00" pos="3.64" lane=":8920874081_0_1" slope="0.00"/>
    </timestep>
    <timestep time="38.00">
        <vehicle id="0" x="1901.05" y="1329.18" angle="289.27" type="DEFAULT_VEHTYPE" speed="0.00" pos="3.64" lane=":8920874081_0_1" slope="0.00"/>
    </timestep>
    <timestep time="39.00">
        <vehicle id="0" x="1901.05" y="1329.18" angle="289.27" type="DEFAULT_VEHTYPE" speed="0.00" pos="3.64" lane=":8920874081_0_1" slope="0.00"/>
    </timestep>
    <timestep time="40.00">
        <vehicle id="0" x="1901.05" y="1329.18" angle="289.27" type="DEFAULT_VEHTYPE" speed="0.00" pos="3.64" lane=":8920874081_0_1" slope="0.00"/>
    </timestep>
    <timestep time="41.00">
        <vehicle id="0" x="1901.05" y="1329.18" angle="289.27" type="DEFAULT_VEHTYPE" speed="0.00" pos="3.64" lane=":8920874081_0_1" slope="0.00"/>
    </timestep>
    <timestep time="42.00">
        <vehicle id="0" x="1901.05" y="1329.18" angle="289.27" type="DEFAULT_VEHTYPE" speed="0.00" pos="3.64" lane=":8920874081_0_1" slope="0.00"/>
    </timestep>
    <timestep time="43.00">
        <vehicle id="0" x="1901.05" y="1329.18" angle="289.27" type="DEFAULT_VEHTYPE" speed="0.00" pos="3.64" lane=":8920874081_0_1" slope="0.00"/>
    </timestep>
    <timestep time="44.00">
        <vehicle id="0" x="1901.05" y="1329.18" angle="289.27" type="DEFAULT_VEHTYPE" speed="0.00" pos="3.64" lane=":8920874081_0_1" slope="0.00"/>
    </timestep>
    <timestep time="45.00">
        <vehicle id="0" x="1899.09" y="1329.92" angle="289.94" type="DEFAULT_VEHTYPE" speed="2.07" pos="1.07" lane=":419724292_6_0" slope="0.00"/>
    </timestep>
    <timestep time="46.00">
        <vehicle id="0" x="1896.01" y="1329.02" angle="264.09" type="DEFAULT_VEHTYPE" speed="3.59" pos="4.66" lane=":419724292_6_0" slope="0.00"/>
    </timestep>
    <timestep time="47.00">
        <vehicle id="0" x="1894.67" y="1323.49" angle="191.35" type="DEFAULT_VEHTYPE" speed="5.77" pos="0.84" lane="48202929#0_1" slope="0.00"/>
    </timestep>
    <timestep time="48.00">
        <vehicle id="0" x="1894.21" y="1315.41" angle="183.03" type="DEFAULT_VEHTYPE" speed="8.09" pos="8.94" lane="48202929#0_1" slope="0.00"/>
    </timestep>
    <timestep time="49.00">
        <vehicle id="0" x="1893.68" y="1304.86" angle="182.85" type="DEFAULT_VEHTYPE" speed="10.55" pos="19.49" lane="48202929#0_1" slope="0.00"/>
    </timestep>
    <timestep time="50.00">
        <vehicle id="0" x="1893.07" y="1292.59" angle="182.85" type="DEFAULT_VEHTYPE" speed="12.28" pos="31.77" lane="48202929#0_1" slope="0.00"/>
    </timestep>
    <timestep time="51.00">
        <vehicle id="0" x="1892.38" y="1278.68" angle="182.85" type="DEFAULT_VEHTYPE" speed="13.92" pos="45.69" lane="48202929#0_1" slope="0.00"/>
    </timestep>
    <timestep time="52.00">
        <vehicle id="0" x="1891.69" y="1264.88" angle="182.85" type="DEFAULT_VEHTYPE" speed="13.81" pos="59.50" lane="48202929#0_1" slope="0.00"/>
    </timestep>
    <timestep time="53.00">
        <vehicle id="0" x="1890.97" y="1250.50" angle="182.85" type="DEFAULT_VEHTYPE" speed="14.39" pos="73.89" lane="48202929#0_1" slope="0.00"/>
    </timestep>
    <timestep time="54.00">
        <vehicle id="0" x="1890.48" y="1240.52" angle="182.85" type="DEFAULT_VEHTYPE" speed="10.00" pos="83.89" lane="48202929#0_1" slope="0.00"/>
    </timestep>
    <timestep time="55.00">
        <vehicle id="0" x="1890.14" y="1233.74" angle="182.85" type="DEFAULT_VEHTYPE" speed="6.79" pos="90.67" lane="48202929#0_1" slope="0.00"/>
    </timestep>
    <timestep time="56.00">
        <vehicle id="0" x="1889.72" y="1226.28" angle="183.38" type="DEFAULT_VEHTYPE" speed="7.50" pos="4.35" lane=":5348030675_0_1" slope="0.00"/>
    </timestep>
    <timestep time="57.00">
        <vehicle id="0" x="1889.45" y="1221.89" angle="183.46" type="DEFAULT_VEHTYPE" speed="4.45" pos="8.79" lane=":5348030675_0_1" slope="0.00"/>
    </timestep>
    <timestep time="58.00">
        <vehicle id="0" x="1889.41" y="1221.16" angle="183.46" type="DEFAULT_VEHTYPE" speed="0.74" pos="9.53" lane=":5348030675_0_1" slope="0.00"/>
    </timestep>
    <timestep time="59.00">
        <vehicle id="0" x="1889.41" y="1221.12" angle="183.46" type="DEFAULT_VEHTYPE" speed="0.04" pos="9.57" lane=":5348030675_0_1" slope="0.00"/>
    </timestep>
    <timestep time="60.00">
        <vehicle id="0" x="1889.41" y="1221.12" angle="183.46" type="DEFAULT_VEHTYPE" speed="0.00" pos="9.58" lane=":5348030675_0_1" slope="0.00"/>
    </timestep>
    <timestep time="61.00">
        <vehicle id="0" x="1889.41" y="1221.11" angle="183.46" type="DEFAULT_VEHTYPE" speed="0.00" pos="9.58" lane=":5348030675_0_1" slope="0.00"/>
    </timestep>
    <timestep time="62.00">
        <vehicle id="0" x="1889.41" y="1221.11" angle="183.46" type="DEFAULT_VEHTYPE" speed="0.00" pos="9.58" lane=":5348030675_0_1" slope="0.00"/>
    </timestep>
    <timestep time="63.00">
        <vehicle id="0" x="1889.41" y="1221.11" angle="183.46" type="DEFAULT_VEHTYPE" speed="0.00" pos="9.58" lane=":5348030675_0_1" slope="0.00"/>
    </timestep>
    <timestep time="64.00">
        <vehicle id="0" x="1889.41" y="1221.11" angle="183.46" type="DEFAULT_VEHTYPE" speed="0.00" pos="9.58" lane=":5348030675_0_1" slope="0.00"/>
    </timestep>
    <timestep time="65.00">
        <vehicle id="0" x="1889.41" y="1221.11" angle="183.46" type="DEFAULT_VEHTYPE" speed="0.00" pos="9.58" lane=":5348030675_0_1" slope="0.00"/>
    </timestep>
    <timestep time="66.00">
        <vehicle id="0" x="1889.41" y="1221.11" angle="183.46" type="DEFAULT_VEHTYPE" speed="0.00" pos="9.58" lane=":5348030675_0_1" slope="0.00"/>
    </timestep>
    <timestep time="67.00">
        <vehicle id="0" x="1889.41" y="1221.11" angle="183.46" type="DEFAULT_VEHTYPE" speed="0.00" pos="9.58" lane=":5348030675_0_1" slope="0.00"/>
    </timestep>
    <timestep time="68.00">
        <vehicle id="0" x="1889.41" y="1221.11" angle="183.46" type="DEFAULT_VEHTYPE" speed="0.00" pos="9.58" lane=":5348030675_0_1" slope="0.00"/>
    </timestep>
    <timestep time="69.00">
        <vehicle id="0" x="1889.41" y="1221.11" angle="183.46" type="DEFAULT_VEHTYPE" speed="0.00" pos="9.58" lane=":5348030675_0_1" slope="0.00"/>
    </timestep>
    <timestep time="70.00">
        <vehicle id="0" x="1889.41" y="1221.11" angle="183.46" type="DEFAULT_VEHTYPE" speed="0.00" pos="9.58" lane=":5348030675_0_1" slope="0.00"/>
    </timestep>
    <timestep time="71.00">
        <vehicle id="0" x="1889.41" y="1221.11" angle="183.46" type="DEFAULT_VEHTYPE" speed="0.00" pos="9.58" lane=":5348030675_0_1" slope="0.00"/>
    </timestep>
    <timestep time="72.00">
        <vehicle id="0" x="1889.41" y="1221.11" angle="183.46" type="DEFAULT_VEHTYPE" speed="0.00" pos="9.58" lane=":5348030675_0_1" slope="0.00"/>
        <vehicle id="2" x="1946.46" y="1496.33" angle="43.38" type="DEFAULT_VEHTYPE" speed="0.00" pos="5.10" lane="48501815#0_0" slope="0.00"/>
    </timestep>
    <timestep time="73.00">
        <vehicle id="0" x="1889.41" y="1221.11" angle="183.46" type="DEFAULT_VEHTYPE" speed="0.00" pos="9.58" lane=":5348030675_0_1" slope="0.00"/>
        <vehicle id="2" x="1948.05" y="1497.61" angle="48.44" type="DEFAULT_VEHTYPE" speed="2.10" pos="7.20" lane="48501815#0_0" slope="0.00"/>
    </timestep>
    <timestep time="74.00">
        <vehicle id="0" x="1889.41" y="1221.11" angle="183.46" type="DEFAULT_VEHTYPE" speed="0.00" pos="9.58" lane=":5348030675_0_1" slope="0.00"/>
        <vehicle id="2" x="1948.04" y="1501.71" angle="51.10" type="DEFAULT_VEHTYPE" speed="3.71" pos="10.91" lane="48501815#0_1" slope="0.00"/>
    </timestep>
    <timestep time="75.00">
        <vehicle id="0" x="1889.41" y="1221.11" angle="183.46" type="DEFAULT_VEHTYPE" speed="0.00" pos="9.58" lane=":5348030675_0_1" slope="0.00"/>
        <vehicle id="2" x="1952.73" y="1505.04" angle="55.08" type="DEFAULT_VEHTYPE" speed="5.60" pos="16.51" lane="48501815#0_1" slope="0.00"/>
    </timestep>
    <timestep time="76.00">
        <vehicle id="0" x="1889.41" y="1221.11" angle="183.46" type="DEFAULT_VEHTYPE" speed="0.00" pos="9.58" lane=":5348030675_0_1" slope="0.00"/>
        <vehicle id="2" x="1959.48" y="1509.61" angle="55.89" type="DEFAULT_VEHTYPE" speed="7.94" pos="24.46" lane="48501815#0_1" slope="0.00"/>
    </timestep>
    <timestep time="77.00">
        <vehicle id="0" x="1889.41" y="1221.11" angle="183.46" type="DEFAULT_VEHTYPE" speed="0.00" pos="9.58" lane=":5348030675_0_1" slope="0.00"/>
        <vehicle id="2" x="1967.35" y="1514.94" angle="55.89" type="DEFAULT_VEHTYPE" speed="9.27" pos="33.73" lane="48501815#0_1" slope="0.00"/>
    </timestep>
    <timestep time="78.00">
        <vehicle id="0" x="1889.41" y="1221.11" angle="183.46" type="DEFAULT_VEHTYPE" speed="0.00" pos="9.58" lane=":5348030675_0_1" slope="0.00"/>
        <vehicle id="2" x="1976.23" y="1520.95" angle="55.92" type="DEFAULT_VEHTYPE" speed="10.66" pos="8.36" lane=":11050340832_3_1" slope="0.00"/>
    </timestep>
    <timestep time="79.00">
        <vehicle id="0" x="1889.41" y="1221.11" angle="183.46" type="DEFAULT_VEHTYPE" speed="0.00" pos="9.58" lane=":5348030675_0_1" slope="0.00"/>
        <vehicle id="2" x="1986.36" y="1527.81" angle="55.91" type="DEFAULT_VEHTYPE" speed="12.22" pos="11.18" lane="48501815#1_1" slope="0.00"/>
    </timestep>
    <timestep time="80.00">
        <vehicle id="0" x="1889.41" y="1221.11" angle="183.46" type="DEFAULT_VEHTYPE" speed="0.00" pos="9.58" lane=":5348030675_0_1" slope="0.00"/>
        <vehicle id="2" x="1996.82" y="1534.89" angle="55.91" type="DEFAULT_VEHTYPE" speed="12.64" pos="23.82" lane="48501815#1_1" slope="0.00"/>
    </timestep>
    <timestep time="81.00">
        <vehicle id="0" x="1889.41" y="1221.11" angle="183.46" type="DEFAULT_VEHTYPE" speed="0.00" pos="9.58" lane=":5348030675_0_1" slope="0.00"/>
        <vehicle id="2" x="2006.94" y="1541.74" angle="55.91" type="DEFAULT_VEHTYPE" speed="12.22" pos="36.04" lane="48501815#1_1" slope="0.00"/>
    </timestep>
    <timestep time="82.00">
        <vehicle id="0" x="1889.41" y="1221.11" angle="183.46" type="DEFAULT_VEHTYPE" speed="0.00" pos="9.58" lane=":5348030675_0_1" slope="0.00"/>
        <vehicle id="2" x="2013.66" y="1546.29" angle="55.91" type="DEFAULT_VEHTYPE" speed="8.11" pos="44.15" lane="48501815#1_1" slope="0.00"/>
    </timestep>
    <timestep time="83.00">
        <vehicle id="0" x="1889.41" y="1221.11" angle="183.46" type="DEFAULT_VEHTYPE" speed="0.00" pos="9.58" lane=":5348030675_0_1" slope="0.00"/>
        <vehicle id="2" x="2018.03" y="1550.54" angle="44.25" type="DEFAULT_VEHTYPE" speed="6.15" pos="5.95" lane=":3420898173_7_1" slope="0.00"/>
    </timestep>
    <timestep time="84.00">
        <vehicle id="0" x="1889.41" y="1221.11" angle="183.46" type="DEFAULT_VEHTYPE" speed="0.00" pos="9.58" lane=":5348030675_0_1" slope="0.00"/>
        <vehicle id="2" x="2017.94" y="1555.99" angle="356.29" type="DEFAULT_VEHTYPE" speed="5.66" pos="0.56" lane=":8920874073_1_2" slope="0.00"/>
    </timestep>
    <timestep time="85.00">
        <vehicle id="0" x="1889.41" y="1221.11" angle="183.46" type="DEFAULT_VEHTYPE" speed="0.00" pos="9.58" lane=":5348030675_0_1" slope="0.00"/>
        <vehicle id="2" x="2017.43" y="1557.55" angle="345.71" type="DEFAULT_VEHTYPE" speed="1.65" pos="2.21" lane=":8920874073_1_2" slope="0.00"/>
    </timestep>
    <timestep time="86.00">
        <vehicle id="0" x="1889.41" y="1221.11" angle="183.46" type="DEFAULT_VEHTYPE" speed="0.00" pos="9.58" lane=":5348030675_0_1" slope="0.00"/>
        <vehicle id="2" x="2017.11" y="1558.49" angle="343.21" type="DEFAULT_VEHTYPE" speed="1.00" pos="3.21" lane=":8920874073_1_2" slope="0.00"/>
    </timestep>
    <timestep time="87.00">
        <vehicle id="0" x="1889.41" y="1221.11" angle="183.46" type="DEFAULT_VEHTYPE" speed="0.00" pos="9.58" lane=":5348030675_0_1" slope="0.00"/>
        <vehicle id="2" x="2017.06" y="1558.65" angle="342.81" type="DEFAULT_VEHTYPE" speed="0.16" pos="3.37" lane=":8920874073_1_2" slope="0.00"/>
    </timestep>
    <timestep time="88.00">
        <vehicle id="0" x="1889.41" y="1221.11" angle="183.46" type="DEFAULT_VEHTYPE" speed="0.00" pos="9.58" lane=":5348030675_0_1" slope="0.00"/>
        <vehicle id="2" x="2017.04" y="1558.71" angle="342.63" type="DEFAULT_VEHTYPE" speed="0.07" pos="3.44" lane=":8920874073_1_2" slope="0.00"/>
    </timestep>
    <timestep time="89.00">
        <vehicle id="0" x="1889.41" y="1221.11" angle="183.46" type="DEFAULT_VEHTYPE" speed="0.00" pos="9.58" lane=":5348030675_0_1" slope="0.00"/>
        <vehicle id="2" x="2017.03" y="1558.74" angle="342.56" type="DEFAULT_VEHTYPE" speed="0.03" pos="3.47" lane=":8920874073_1_2" slope="0.00"/>
    </timestep>
    <timestep time="90.00">
        <vehicle id="0" x="1886.12" y="1219.15" angle="183.01" type="DEFAULT_VEHTYPE" speed="2.06" pos="1.06" lane=":4183242491_0_0" slope="0.00"/>
        <vehicle id="2" x="2016.17" y="1560.19" angle="337.39" type="DEFAULT_VEHTYPE" speed="1.79" pos="0.78" lane=":612586171_8_0" slope="0.00"/>
    </timestep>
    <timestep time="91.00">
        <vehicle id="0" x="1885.97" y="1214.90" angle="182.01" type="DEFAULT_VEHTYPE" speed="4.26" pos="5.32" lane=":4183242491_0_0" slope="0.00"/>
        <vehicle id="2" x="2014.14" y="1559.38" angle="295.82" type="DEFAULT_VEHTYPE" speed="2.25" pos="0.19" lane=":3420898174_0_1" slope="0.00"/>
    </timestep>
    <timestep time="92.00">
        <vehicle id="0" x="1885.75" y="1208.64" angle="182.05" type="DEFAULT_VEHTYPE" speed="6.27" pos="1.57" lane="48202921_0" slope="0.00"/>
        <vehicle id="2" x="2010.84" y="1557.15" angle="236.63" type="DEFAULT_VEHTYPE" speed="3.97" pos="4.16" lane=":3420898174_0_1" slope="0.00"/>
    </timestep>
    <timestep time="93.00">
        <vehicle id="0" x="1885.39" y="1199.88" angle="182.40" type="DEFAULT_VEHTYPE" speed="8.77" pos="10.34" lane="48202921_0" slope="0.00"/>
        <vehicle id="2" x="2005.86" y="1553.82" angle="236.19" type="DEFAULT_VEHTYPE" speed="5.98" pos="1.27" lane="542434369#3_1" slope="0.00"/>
    </timestep>
    <timestep time="94.00">
        <vehicle id="0" x="1884.95" y="1189.25" angle="182.40" type="DEFAULT_VEHTYPE" speed="10.63" pos="20.97" lane="48202921_0" slope="0.00"/>
        <vehicle id="2" x="1998.86" y="1549.18" angle="236.48" type="DEFAULT_VEHTYPE" speed="8.35" pos="9.62" lane="542434369#3_1" slope="0.00"/>
    </timestep>
    <timestep time="95.00">
        <vehicle id="0" x="1884.40" y="1176.08" angle="182.40" type="DEFAULT_VEHTYPE" speed="13.18" pos="34.15" lane="48202921_0" slope="0.00"/>
        <vehicle id="2" x="1990.27" y="1543.49" angle="236.48" type="DEFAULT_VEHTYPE" speed="10.24" pos="19.86" lane="542434369#3_1" slope="0.00"/>
    </timestep>
    <timestep time="96.00">
        <vehicle id="0" x="1883.80" y="1161.75" angle="182.40" type="DEFAULT_VEHTYPE" speed="14.34" pos="48.48" lane="48202921_0" slope="0.00"/>
        <vehicle id="2" x="1979.95" y="1536.66" angle="236.48" type="DEFAULT_VEHTYPE" speed="12.32" pos="32.18" lane="542434369#3_1" slope="0.00"/>
    </timestep>
    <timestep time="97.00">
        <vehicle id="0" x="1883.19" y="1147.19" angle="182.40" type="DEFAULT_VEHTYPE" speed="14.56" pos="63.04" lane="48202921_0" slope="0.00"/>
        <vehicle id="2" x="1969.95" y="1530.03" angle="236.48" type="DEFAULT_VEHTYPE" speed="11.94" pos="44.12" lane="542434369#3_1" slope="0.00"/>
    </timestep>
    <timestep time="98.00">
        <vehicle id="0" x="1882.58" y="1132.83" angle="182.40" type="DEFAULT_VEHTYPE" speed="14.37" pos="77.41" lane="48202921_0" slope="0.00"/>
        <vehicle id="2" x="1959.87" y="1523.36" angle="236.48" type="DEFAULT_VEHTYPE" speed="12.02" pos="56.14" lane="542434369#3_1" slope="0.00"/>
    </timestep>
    <timestep time="99.00">
        <vehicle id="0" x="1882.07" y="1119.14" angle="182.15" type="DEFAULT_VEHTYPE" speed="13.75" pos="10.47" lane=":473195047_1_0" slope="0.00"/>
        <vehicle id="2" x="1949.65" y="1516.58" angle="236.48" type="DEFAULT_VEHTYPE" speed="12.20" pos="68.34" lane="542434369#3_1" slope="0.00"/>
    </timestep>
    <timestep time="100.00">
        <vehicle id="0" x="1881.29" y="1105.10" angle="183.85" type="DEFAULT_VEHTYPE" speed="14.10" pos="0.49" lane=":10917526128_1_0" slope="0.00"/>
        <vehicle id="2" x="1940.86" y="1510.77" angle="236.48" type="DEFAULT_VEHTYPE" speed="10.48" pos="78.82" lane="542434369#3_1" slope="0.00"/>
    </timestep>
    <timestep time="101.00">
        <vehicle id="0" x="1880.60" y="1090.93" angle="182.18" type="DEFAULT_VEHTYPE" speed="14.14" pos="5.27" lane="389741417#1_0" slope="0.00"/>
        <vehicle id="2" x="1935.03" y="1507.11" angle="238.46" type="DEFAULT_VEHTYPE" speed="6.86" pos="85.68" lane="542434369#3_1" slope="0.00"/>
    </timestep>
    <timestep time="102.00">
        <vehicle id="0" x="1880.08" y="1077.29" angle="182.18" type="DEFAULT_VEHTYPE" speed="13.67" pos="18.94" lane="389741417#1_0" slope="0.00"/>
        <vehicle id="2" x="1927.49" y="1502.95" angle="241.33" type="DEFAULT_VEHTYPE" speed="8.29" pos="4.05" lane=":3445696063_0_1" slope="0.00"/>
    </timestep>
    <timestep time="103.00">
        <vehicle id="0" x="1879.56" y="1063.55" angle="182.18" type="DEFAULT_VEHTYPE" speed="13.77" pos="32.71" lane="389741417#1_0" slope="0.00"/>
        <vehicle id="2" x="1917.27" y="1506.40" angle="280.66" type="DEFAULT_VEHTYPE" speed="10.40" pos="2.52" lane=":4962835014_2_0" slope="0.00"/>
    </timestep>
    <timestep time="104.00">
        <vehicle id="0" x="1878.77" y="1049.60" angle="183.78" type="DEFAULT_VEHTYPE" speed="13.99" pos="46.70" lane="389741417#1_0" slope="0.00"/>
        <vehicle id="2" x="1904.26" y="1503.27" angle="248.01" type="DEFAULT_VEHTYPE" speed="12.59" pos="5.60" lane=":4962835015_2_0" slope="0.00"/>
    </timestep>
    <timestep time="105.00">
        <vehicle id="0" x="1877.87" y="1036.01" angle="183.78" type="DEFAULT_VEHTYPE" speed="13.64" pos="60.34" lane="389741417#1_0" slope="0.00"/>
        <vehicle id="2" x="1894.86" y="1491.32" angle="205.80" type="DEFAULT_VEHTYPE" speed="14.37" pos="7.99" lane="48500734#13_0" slope="0.00"/>
    </timestep>
    <timestep time="106.00">
        <vehicle id="0" x="1876.93" y="1021.87" angle="183.87" type="DEFAULT_VEHTYPE" speed="14.17" pos="1.38" lane=":3170817405_0_0" slope="0.00"/>
        <vehicle id="2" x="1894.74" y="1478.38" angle="173.93" type="DEFAULT_VEHTYPE" speed="12.23" pos="4.57" lane=":5214556597_1_0" slope="0.00"/>
    </timestep>
    <timestep time="107.00">
        <vehicle id="0" x="1876.13" y="1007.15" angle="182.86" type="DEFAULT_VEHTYPE" speed="14.63" pos="0.87" lane="389741416_0" slope="0.00"/>
        <vehicle id="2" x="1897.27" y="1464.07" angle="176.26" type="DEFAULT_VEHTYPE" speed="14.51" pos="12.73" lane=":616250838_0_0" slope="0.00"/>
    </timestep>
    <timestep time="108.00">
        <vehicle id="0" x="1875.97" y="993.28" angle="180.62" type="DEFAULT_VEHTYPE" speed="13.84" pos="12.24" lane=":473194792_0_0" slope="0.00"/>
        <vehicle id="2" x="1898.05" y="1453.75" angle="177.21" type="DEFAULT_VEHTYPE" speed="10.41" pos="2.40" lane=":3073574611_2_0" slope="0.00"/>
        <vehicle id="3" x="1885.65" y="1218.84" angle="99.43" type="DEFAULT_VEHTYPE" speed="0.00" pos="0.20" lane="554582109#2_0" slope="0.00"/>
    </timestep>
    <timestep time="109.00">
        <vehicle id="0" x="1875.85" y="978.62" angle="180.85" type="DEFAULT_VEHTYPE" speed="14.67" pos="13.95" lane="389741419_0" slope="0.00"/>
        <vehicle id="2" x="1896.53" y="1443.93" angle="189.15" type="DEFAULT_VEHTYPE" speed="10.16" pos="12.57" lane=":3073574611_2_0" slope="0.00"/>
        <vehicle id="3" x="1885.65" y="1218.84" angle="99.43" type="DEFAULT_VEHTYPE" speed="0.00" pos="0.20" lane="554582109#2_0" slope="0.00"/>
    </timestep>
    <timestep time="110.00">
        <vehicle id="0" x="1875.63" y="963.91" angle="180.85" type="DEFAULT_VEHTYPE" speed="14.72" pos="28.67" lane="389741419_0" slope="0.00"/>
        <vehicle id="2" x="1896.23" y="1437.29" angle="182.17" type="DEFAULT_VEHTYPE" speed="6.66" pos="6.02" lane="48202930_0" slope="0.00"/>
        <vehicle id="3" x="1885.65" y="1218.84" angle="99.43" type="DEFAULT_VEHTYPE" speed="0.00" pos="0.20" lane="554582109#2_0" slope="0.00"/>
    </timestep>
    <timestep time="111.00">
        <vehicle id="0" x="1875.42" y="949.61" angle="180.85" type="DEFAULT_VEHTYPE" speed="14.32" pos="42.98" lane="389741419_0" slope="0.00"/>
        <vehicle id="2" x="1895.94" y="1429.58" angle="182.17" type="DEFAULT_VEHTYPE" speed="7.72" pos="13.75" lane="48202930_0" slope="0.00"/>
        <vehicle id="3" x="1885.65" y="1218.84" angle="99.43" type="DEFAULT_VEHTYPE" speed="0.00" pos="0.20" lane="554582109#2_0" slope="0.00"/>
    </timestep>
    <timestep time="112.00">
        <vehicle id="0" x="1875.22" y="935.81" angle="180.85" type="DEFAULT_VEHTYPE" speed="13.81" pos="56.79" lane="389741419_0" slope="0.00"/>
        <vehicle id="2" x="1895.66" y="1422.25" angle="182.17" type="DEFAULT_VEHTYPE" speed="7.33" pos="21.08" lane="48202930_0" slope="0.00"/>
        <vehicle id="3" x="1885.65" y="1218.84" angle="99.43" type="DEFAULT_VEHTYPE" speed="0.00" pos="0.20" lane="554582109#2_0" slope="0.00"/>
    </timestep>
    <timestep time="113.00">
        <vehicle id="0" x="1875.01" y="921.96" angle="180.85" type="DEFAULT_VEHTYPE" speed="13.87" pos="70.66" lane="389741419_0" slope="0.00"/>
        <vehicle id="2" x="1895.41" y="1415.70" angle="182.17" type="DEFAULT_VEHTYPE" speed="6.55" pos="27.63" lane="48202930_0" slope="0.00"/>