<?xml version="1.0" encoding="UTF-8"?>

<!-- generated on 2024-07-04 08:23:07 by Eclipse SUMO sumo Version v1_19_0+1520-dc4640af2ac
<configuration xmlns:xsi="http://www.w3.org/2001/XMLSchema-instance" xsi:noNamespaceSchemaLocation="http://sumo.dlr.de/xsd/sumoConfiguration.xsd">

    <input>
        <net-file value="huaynacapac.net.xml"/>
        <route-files value="rutasjtrrouter.rou.xml"/>
        <additional-files value="huaynacapac.poly.xml,detectores.add.xml"/>
    </input>

    <output>
        <emission-output value="co2.xml"/>
        <fcd-output value="fcd.xml"/>
        <tripinfo-output value="tripinfo.xml"/>
        <edgedata-output value="edgedata.xml"/>
    </output>

    <time>
        <begin value="0"/>
        <end value="3600"/>
        <step-length value="1"/>
    </time>

    <processing>
        <ignore-route-errors value="true"/>
    </processing>

    <report>
        <verbose value="true"/>
    </report>

    <emissions>
        <device.emissions.probability value="1"/>
    </emissions>

</configuration>
-->

<tripinfos xmlns:xsi="http://www.w3.org/2001/XMLSchema-instance" xsi:noNamespaceSchemaLocation="http://sumo.dlr.de/xsd/tripinfo_file.xsd">
    <tripinfo id="a2.2" depart="10.00" departLane="893257053_0" departPos="5.10" departSpeed="0.00" departDelay="0.26" arrival="93.00" arrivalLane="370601722#1_0" arrivalPos="88.26" arrivalSpeed="13.53" duration="83.00" routeLength="436.54" waitingTime="27.00" waitingCount="1" stopTime="0.00" timeLoss="37.51" rerouteNo="0" devices="tripinfo_a2.2 emissions_a2.2 fcd_a2.2" vType="auto" speedFactor="1.01" vaporized="">
        <emissions CO_abs="7735.545730" CO2_abs="231727.454103" HC_abs="40.629568" PMx_abs="4.651795" NOx_abs="99.152648" fuel_abs="73912.365083" electricity_abs="0"/>
    </tripinfo>
    <tripinfo id="a2.0" depart="1.00" departLane="893257053_0" departPos="5.10" departSpeed="0.00" departDelay="0.21" arrival="118.00" arrivalLane="49582171#1_0" arrivalPos="136.14" arrivalSpeed="14.04" duration="117.00" routeLength="531.34" waitingTime="36.00" waitingCount="2" stopTime="0.00" timeLoss="62.31" rerouteNo="0" devices="tripinfo_a2.0 emissions_a2.0 fcd_a2.0" vType="auto" speedFactor="1.06" vaporized="">
        <emissions CO_abs="10648.605523" CO2_abs="286464.983855" HC_abs="55.035980" PMx_abs="5.667640" NOx_abs="122.190569" fuel_abs="91372.343279" electricity_abs="0"/>
    </tripinfo>
    <tripinfo id="a2.9" depart="28.00" departLane="893257053_0" departPos="5.10" departSpeed="0.00" departDelay="0.52" arrival="121.00" arrivalLane="40972457#2_0" arrivalPos="8.74" arrivalSpeed="6.49" duration="93.00" routeLength="423.90" waitingTime="21.00" waitingCount="2" stopTime="0.00" timeLoss="33.52" rerouteNo="0" devices="tripinfo_a2.9 emissions_a2.9 fcd_a2.9" vType="auto" speedFactor="0.86" vaporized="">
        <emissions CO_abs="7359.651221" CO2_abs="188562.351430" HC_abs="37.812982" PMx_abs="3.433774" NOx_abs="78.868521" fuel_abs="60145.357292" electricity_abs="0"/>
    </tripinfo>
    <tripinfo id="a2.8" depart="23.00" departLane="893257053_0" departPos="5.10" departSpeed="0.00" departDelay="0.29" arrival="122.00" arrivalLane="49582171#1_0" arrivalPos="136.14" arrivalSpeed="12.52" duration="99.00" routeLength="531.34" waitingTime="24.00" waitingCount="2" stopTime="0.00" timeLoss="36.93" rerouteNo="0" devices="tripinfo_a2.8 emissions_a2.8 fcd_a2.8" vType="auto" speedFactor="0.94" vaporized="">
        <emissions CO_abs="7704.450703" CO2_abs="228327.493029" HC_abs="40.362883" PMx_abs="4.313349" NOx_abs="96.111272" fuel_abs="72828.252952" electricity_abs="0"/>
    </tripinfo>
    <tripinfo id="a2.1" depart="3.00" departLane="893257053_1" departPos="5.10" departSpeed="0.00" departDelay="0.64" arrival="136.00" arrivalLane="60204530_0" arrivalPos="331.36" arrivalSpeed="12.04" duration="133.00" routeLength="948.95" waitingTime="34.00" waitingCount="1" stopTime="0.00" timeLoss="54.53" rerouteNo="0" devices="tripinfo_a2.1 emissions_a2.1 fcd_a2.1" vType="auto" speedFactor="0.94" vaporized="">
        <emissions CO_abs="10189.197384" CO2_abs="368486.388474" HC_abs="54.898903" PMx_abs="6.784176" NOx_abs="152.254012" fuel_abs="117532.797671" electricity_abs="0"/>
    </tripinfo>
    <tripinfo id="a2.3" depart="14.00" departLane="893257053_1" departPos="5.10" departSpeed="0.00" departDelay="0.95" arrival="140.00" arrivalLane="49577311#1_0" arrivalPos="41.23" arrivalSpeed="13.95" duration="126.00" routeLength="747.71" waitingTime="28.00" waitingCount="1" stopTime="0.00" timeLoss="46.71" rerouteNo="0" devices="tripinfo_a2.3 emissions_a2.3 fcd_a2.3" vType="auto" speedFactor="1.08" vaporized="">
        <emissions CO_abs="9170.668372" CO2_abs="299658.106168" HC_abs="48.650056" PMx_abs="5.498139" NOx_abs="124.906238" fuel_abs="95579.742854" electricity_abs="0"/>
    </tripinfo>
    <tripinfo id="a2.4" depart="14.00" departLane="893257053_0" departPos="5.10" departSpeed="0.00" departDelay="0.44" arrival="141.00" arrivalLane="60204530_0" arrivalPos="331.36" arrivalSpeed="13.61" duration="127.00" routeLength="948.95" waitingTime="29.00" waitingCount="3" stopTime="0.00" timeLoss="54.66" rerouteNo="0" devices="tripinfo_a2.4 emissions_a2.4 fcd_a2.4" vType="auto" speedFactor="1.03" vaporized="">
        <emissions CO_abs="9881.615831" CO2_abs="370038.678185" HC_abs="53.483567" PMx_abs="6.981144" NOx_abs="153.548454" fuel_abs="118027.509632" electricity_abs="0"/>
    </tripinfo>
    <tripinfo id="a2.13" depart="61.00" departLane="893257053_1" departPos="5.10" departSpeed="0.00" departDelay="5.35" arrival="159.00" arrivalLane="264394468_0" arrivalPos="97.79" arrivalSpeed="8.55" duration="98.00" routeLength="916.54" waitingTime="1.00" waitingCount="1" stopTime="0.00" timeLoss="23.00" rerouteNo="0" devices="tripinfo_a2.13 emissions_a2.13 fcd_a2.13" vType="auto" speedFactor="1.12" vaporized="">
        <emissions CO_abs="5448.118711" CO2_abs="306343.341986" HC_abs="31.882103" PMx_abs="5.606469" NOx_abs="126.725807" fuel_abs="97709.648884" electricity_abs="0"/>
    </tripinfo>
    <tripinfo id="a2.22" depart="122.00" departLane="893257053_0" departPos="5.10" departSpeed="0.00" departDelay="0.22" arrival="160.00" arrivalLane="-47861237_1" arrivalPos="34.13" arrivalSpeed="12.45" duration="38.00" routeLength="136.26" waitingTime="17.00" waitingCount="3" stopTime="0.00" timeLoss="25.45" rerouteNo="0" devices="tripinfo_a2.22 emissions_a2.22 fcd_a2.22" vType="auto" speedFactor="0.97" vaporized="">
        <emissions CO_abs="4577.062456" CO2_abs="113052.060588" HC_abs="23.501349" PMx_abs="2.482792" NOx_abs="49.736333" fuel_abs="36059.636460" electricity_abs="0"/>
    </tripinfo>
    <tripinfo id="a2.21" depart="117.00" departLane="893257053_0" departPos="5.10" departSpeed="0.00" departDelay="0.41" arrival="195.00" arrivalLane="40972457#2_0" arrivalPos="8.74" arrivalSpeed="7.94" duration="78.00" routeLength="423.90" waitingTime="16.00" waitingCount="1" stopTime="0.00" timeLoss="26.98" rerouteNo="0" devices="tripinfo_a2.21 emissions_a2.21 fcd_a2.21" vType="auto" speedFactor="1.01" vaporized="">
        <emissions CO_abs="5663.098176" CO2_abs="167453.001417" HC_abs="29.615618" PMx_abs="2.946324" NOx_abs="69.205086" fuel_abs="53411.725783" electricity_abs="0"/>
    </tripinfo>
    <tripinfo id="a2.23" depart="129.00" departLane="893257053_1" departPos="5.10" departSpeed="0.00" departDelay="0.46" arrival="206.00" arrivalLane="40972457#2_0" arrivalPos="8.74" arrivalSpeed="6.97" duration="77.00" routeLength="423.90" waitingTime="7.00" waitingCount="1" stopTime="0.00" timeLoss="19.54" rerouteNo="0" devices="tripinfo_a2.23 emissions_a2.23 fcd_a2.23" vType="auto" speedFactor="0.89" vaporized="">
        <emissions CO_abs="4831.633313" CO2_abs="151325.283925" HC_abs="25.449784" PMx_abs="2.581196" NOx_abs="62.283055" fuel_abs="48267.430577" electricity_abs="0"/>
    </tripinfo>
    <tripinfo id="a2.12" depart="60.00" departLane="893257053_0" departPos="5.10" departSpeed="0.00" departDelay="9.40" arrival="213.00" arrivalLane="40972457#2_0" arrivalPos="8.74" arrivalSpeed="7.43" duration="153.00" routeLength="636.69" waitingTime="1.00" waitingCount="1" stopTime="0.00" timeLoss="30.62" rerouteNo="0" devices="tripinfo_a2.12 emissions_a2.12 fcd_a2.12" vType="auto" speedFactor="1.05" vaporized="">
        <emissions CO_abs="10764.655421" CO2_abs="290523.034344" HC_abs="55.628323" PMx_abs="5.140161" NOx_abs="120.773689" fuel_abs="92667.340881" electricity_abs="0"/>
    </tripinfo>
    <tripinfo id="a2.25" depart="164.00" departLane="893257053_0" departPos="5.10" departSpeed="0.00" departDelay="0.98" arrival="224.00" arrivalLane="370601722#1_0" arrivalPos="88.26" arrivalSpeed="11.92" duration="60.00" routeLength="436.54" waitingTime="0.00" waitingCount="0" stopTime="0.00" timeLoss="7.36" rerouteNo="0" devices="tripinfo_a2.25 emissions_a2.25 fcd_a2.25" vType="auto" speedFactor="0.87" vaporized="">
        <emissions CO_abs="3020.137411" CO2_abs="142813.894621" HC_abs="16.995555" PMx_abs="2.284227" NOx_abs="57.496909" fuel_abs="45551.814346" electricity_abs="0"/>
    </tripinfo>
    <tripinfo id="a2.14" depart="65.00" departLane="893257053_0" departPos="5.10" departSpeed="0.00" departDelay="7.15" arrival="225.00" arrivalLane="40972457#2_0" arrivalPos="8.74" arrivalSpeed="8.03" duration="160.00" routeLength="636.69" waitingTime="0.00" waitingCount="0" stopTime="0.00" timeLoss="30.61" rerouteNo="0" devices="tripinfo_a2.14 emissions_a2.14 fcd_a2.14" vType="auto" speedFactor="0.99" vaporized="">
        <emissions CO_abs="10050.946221" CO2_abs="270573.291341" HC_abs="51.948786" PMx_abs="4.924355" NOx_abs="113.455798" fuel_abs="86303.879482" electricity_abs="0"/>
    </tripinfo>
    <tripinfo id="a2.19" depart="108.00" departLane="893257053_0" departPos="5.10" departSpeed="0.00" departDelay="0.21" arrival="230.00" arrivalLane="60204530_0" arrivalPos="331.36" arrivalSpeed="15.86" duration="122.00" routeLength="948.95" waitingTime="26.00" waitingCount="2" stopTime="0.00" timeLoss="58.47" rerouteNo="0" devices="tripinfo_a2.19 emissions_a2.19 fcd_a2.19" vType="auto" speedFactor="1.16" vaporized="">
        <emissions CO_abs="9392.156093" CO2_abs="369613.882480" HC_abs="51.021319" PMx_abs="6.891272" NOx_abs="152.449449" fuel_abs="117891.774394" electricity_abs="0"/>
    </tripinfo>
    <tripinfo id="a2.18" depart="101.00" departLane="893257053_0" departPos="5.10" departSpeed="0.00" departDelay="0.37" arrival="234.00" arrivalLane="60204530_0" arrivalPos="331.36" arrivalSpeed="12.01" duration="133.00" routeLength="948.95" waitingTime="29.00" waitingCount="1" stopTime="0.00" timeLoss="54.36" rerouteNo="0" devices="tripinfo_a2.18 emissions_a2.18 fcd_a2.18" vType="auto" speedFactor="0.94" vaporized="">
        <emissions CO_abs="9476.375182" CO2_abs="347181.420075" HC_abs="51.100250" PMx_abs="6.417255" NOx_abs="143.804027" fuel_abs="110737.211666" electricity_abs="0"/>
    </tripinfo>
    <tripinfo id="a2.24" depart="159.00" departLane="893257053_0" departPos="5.10" departSpeed="0.00" departDelay="0.31" arrival="235.00" arrivalLane="49582171#1_1" arrivalPos="136.14" arrivalSpeed="11.25" duration="76.00" routeLength="680.46" waitingTime="0.00" waitingCount="0" stopTime="0.00" timeLoss="10.16" rerouteNo="0" devices="tripinfo_a2.24 emissions_a2.24 fcd_a2.24" vType="auto" speedFactor="0.83" vaporized="">
        <emissions CO_abs="3299.585608" CO2_abs="195373.779481" HC_abs="19.518065" PMx_abs="3.079179" NOx_abs="77.855540" fuel_abs="62315.841369" electricity_abs="0"/>
    </tripinfo>
    <tripinfo id="a2.33" depart="208.00" departLane="893257053_0" departPos="5.10" departSpeed="0.00" departDelay="0.28" arrival="246.00" arrivalLane="-47861237_1" arrivalPos="34.13" arrivalSpeed="15.73" duration="38.00" routeLength="136.26" waitingTime="18.00" waitingCount="1" stopTime="0.00" timeLoss="26.83" rerouteNo="0" devices="tripinfo_a2.33 emissions_a2.33 fcd_a2.33" vType="auto" speedFactor="1.17" vaporized="">
        <emissions CO_abs="4971.860865" CO2_abs="130665.180108" HC_abs="25.713836" PMx_abs="2.817364" NOx_abs="56.963218" fuel_abs="41677.474040" electricity_abs="0"/>
    </tripinfo>
    <tripinfo id="a2.16" depart="90.00" departLane="893257053_0" departPos="5.10" departSpeed="0.00" departDelay="0.40" arrival="247.00" arrivalLane="42201276#0_0" arrivalPos="84.91" arrivalSpeed="6.61" duration="157.00" routeLength="811.83" waitingTime="42.00" waitingCount="3" stopTime="0.00" timeLoss="71.24" rerouteNo="0" devices="tripinfo_a2.16 emissions_a2.16 fcd_a2.16" vType="auto" speedFactor="0.88" vaporized="">
        <emissions CO_abs="14027.982506" CO2_abs="419777.918349" HC_abs="73.592707" PMx_abs="8.206799" NOx_abs="178.362389" fuel_abs="133893.655052" electricity_abs="0"/>
    </tripinfo>
    <tripinfo id="a2.27" depart="170.00" departLane="893257053_1" departPos="5.10" departSpeed="0.00" departDelay="0.25" arrival="280.00" arrivalLane="40972457#2_0" arrivalPos="8.74" arrivalSpeed="7.68" duration="110.00" routeLength="423.90" waitingTime="44.00" waitingCount="2" stopTime="0.00" timeLoss="55.62" rerouteNo="0" devices="tripinfo_a2.27 emissions_a2.27 fcd_a2.27" vType="auto" speedFactor="0.95" vaporized="">
        <emissions CO_abs="10716.596590" CO2_abs="251447.369885" HC_abs="54.581854" PMx_abs="4.948204" NOx_abs="107.220937" fuel_abs="80203.846616" electricity_abs="0"/>
    </tripinfo>
    <tripinfo id="a2.7" depart="20.00" departLane="893257053_0" departPos="5.10" departSpeed="0.00" departDelay="1.61" arrival="283.00" arrivalLane="42201276#3_0" arrivalPos="466.37" arrivalSpeed="6.71" duration="263.00" routeLength="1652.90" waitingTime="25.00" waitingCount="2" stopTime="0.00" timeLoss="59.58" rerouteNo="0" devices="tripinfo_a2.7 emissions_a2.7 fcd_a2.7" vType="auto" speedFactor="0.89" vaporized="">
        <emissions CO_abs="15450.972706" CO2_abs="559452.343909" HC_abs="83.093881" PMx_abs="9.302006" NOx_abs="227.907504" fuel_abs="178444.376066" electricity_abs="0"/>
    </tripinfo>
    <tripinfo id="a2.30" depart="189.00" departLane="893257053_0" departPos="5.10" departSpeed="0.00" departDelay="0.87" arrival="283.00" arrivalLane="49582171#1_0" arrivalPos="136.14" arrivalSpeed="16.19" duration="94.00" routeLength="531.34" waitingTime="30.00" waitingCount="1" stopTime="0.00" timeLoss="44.67" rerouteNo="0" devices="tripinfo_a2.30 emissions_a2.30 fcd_a2.30" vType="auto" speedFactor="1.18" vaporized="">
        <emissions CO_abs="8498.823335" CO2_abs="268339.377333" HC_abs="44.918945" PMx_abs="5.159695" NOx_abs="112.930378" fuel_abs="85590.191395" electricity_abs="0"/>
    </tripinfo>
    <tripinfo id="a2.5" depart="17.00" departLane="893257053_0" departPos="5.10" departSpeed="0.00" departDelay="0.28" arrival="286.00" arrivalLane="49577742_0" arrivalPos="178.37" arrivalSpeed="9.04" duration="269.00" routeLength="1459.23" waitingTime="22.00" waitingCount="1" stopTime="0.00" timeLoss="57.82" rerouteNo="0" devices="tripinfo_a2.5 emissions_a2.5 fcd_a2.5" vType="auto" speedFactor="0.83" vaporized="">
        <emissions CO_abs="16350.097995" CO2_abs="532704.206405" HC_abs="86.572954" PMx_abs="8.889653" NOx_abs="218.017479" fuel_abs="169913.663483" electricity_abs="0"/>
    </tripinfo>
    <tripinfo id="a2.34" depart="210.00" departLane="893257053_1" departPos="5.10" departSpeed="0.00" departDelay="0.49" arrival="294.00" arrivalLane="40972457#2_0" arrivalPos="8.74" arrivalSpeed="8.11" duration="84.00" routeLength="423.90" waitingTime="20.00" waitingCount="2" stopTime="0.00" timeLoss="32.27" rerouteNo="0" devices="tripinfo_a2.34 emissions_a2.34 fcd_a2.34" vType="auto" speedFactor="0.99" vaporized="">
        <emissions CO_abs="6689.567328" CO2_abs="184028.404843" HC_abs="34.664740" PMx_abs="3.294052" NOx_abs="76.448061" fuel_abs="58698.937062" electricity_abs="0"/>
    </tripinfo>
    <tripinfo id="a2.36" depart="231.00" departLane="893257053_1" departPos="5.10" departSpeed="0.00" departDelay="18.43" arrival="305.00" arrivalLane="49582171#1_0" arrivalPos="136.14" arrivalSpeed="12.75" duration="74.00" routeLength="531.34" waitingTime="2.00" waitingCount="1" stopTime="0.00" timeLoss="14.81" rerouteNo="0" devices="tripinfo_a2.36 emissions_a2.36 fcd_a2.36" vType="auto" speedFactor="0.97" vaporized="">
        <emissions CO_abs="3831.769891" CO2_abs="162347.378432" HC_abs="21.131855" PMx_abs="2.588428" NOx_abs="65.268969" fuel_abs="51782.462385" electricity_abs="0"/>
    </tripinfo>
    <tripinfo id="a2.20" depart="109.00" departLane="893257053_0" departPos="5.10" departSpeed="0.00" departDelay="0.48" arrival="311.00" arrivalLane="42201278#2_0" arrivalPos="111.04" arrivalSpeed="7.57" duration="202.00" routeLength="1426.99" waitingTime="24.00" waitingCount="3" stopTime="0.00" timeLoss="53.40" rerouteNo="0" devices="tripinfo_a2.20 emissions_a2.20 fcd_a2.20" vType="auto" speedFactor="1.02" vaporized="">
        <emissions CO_abs="11845.548819" CO2_abs="477454.183437" HC_abs="64.880465" PMx_abs="8.163206" NOx_abs="195.196170" fuel_abs="152288.970279" electricity_abs="0"/>
    </tripinfo>
    <tripinfo id="a2.37" depart="235.00" departLane="893257053_0" departPos="5.10" departSpeed="0.00" departDelay="20.84" arrival="316.00" arrivalLane="49577311#1_0" arrivalPos="41.23" arrivalSpeed="13.57" duration="81.00" routeLength="761.08" waitingTime="0.00" waitingCount="0" stopTime="0.00" timeLoss="20.17" rerouteNo="0" devices="tripinfo_a2.37 emissions_a2.37 fcd_a2.37" vType="auto" speedFactor="1.18" vaporized="">
        <emissions CO_abs="4684.110212" CO2_abs="273838.284044" HC_abs="27.781236" PMx_abs="5.033174" NOx_abs="113.932317" fuel_abs="87341.856718" electricity_abs="0"/>
    </tripinfo>
    <tripinfo id="a2.15" depart="82.00" departLane="893257053_0" departPos="5.10" departSpeed="0.00" departDelay="0.37" arrival="338.00" arrivalLane="45421576#2_0" arrivalPos="122.71" arrivalSpeed="12.57" duration="256.00" routeLength="1717.81" waitingTime="83.00" waitingCount="2" stopTime="0.00" timeLoss="111.45" rerouteNo="0" devices="tripinfo_a2.15 emissions_a2.15 fcd_a2.15" vType="auto" speedFactor="0.93" vaporized="">
        <emissions CO_abs="20478.009263" CO2_abs="682450.285373" HC_abs="108.879093" PMx_abs="12.735034" NOx_abs="283.192113" fuel_abs="217675.855867" electricity_abs="0"/>
    </tripinfo>
    <tripinfo id="a2.39" depart="290.00" departLane="893257053_0" departPos="5.10" departSpeed="0.00" departDelay="0.55" arrival="373.00" arrivalLane="40972457#2_0" arrivalPos="8.74" arrivalSpeed="7.42" duration="83.00" routeLength="423.90" waitingTime="16.00" waitingCount="1" stopTime="0.00" timeLoss="25.65" rerouteNo="0" devices="tripinfo_a2.39 emissions_a2.39 fcd_a2.39" vType="auto" speedFactor="0.90" vaporized="">
        <emissions CO_abs="6210.827097" CO2_abs="182459.748214" HC_abs="32.443626" PMx_abs="3.185050" NOx_abs="75.447358" fuel_abs="58198.398344" electricity_abs="0"/>
    </tripinfo>
    <tripinfo id="a2.41" depart="316.00" departLane="893257053_0" departPos="5.10" departSpeed="0.00" departDelay="0.69" arrival="376.00" arrivalLane="40972457#2_0" arrivalPos="8.74" arrivalSpeed="7.53" duration="60.00" routeLength="423.90" waitingTime="0.00" waitingCount="0" stopTime="0.00" timeLoss="6.12" rerouteNo="0" devices="tripinfo_a2.41 emissions_a2.41 fcd_a2.41" vType="auto" speedFactor="0.96" vaporized="">
        <emissions CO_abs="2790.881353" CO2_abs="123837.205818" HC_abs="15.482152" PMx_abs="1.675197" NOx_abs="48.132761" fuel_abs="39499.460804" electricity_abs="0"/>
    </tripinfo>
    <tripinfo id="a2.28" depart="180.00" departLane="893257053_1" departPos="5.10" departSpeed="0.00" departDelay="0.48" arrival="378.00" arrivalLane="40972457#2_0" arrivalPos="8.74" arrivalSpeed="9.16" duration="198.00" routeLength="636.69" waitingTime="52.00" waitingCount="2" stopTime="0.00" timeLoss="84.47" rerouteNo="0" devices="tripinfo_a2.28 emissions_a2.28 fcd_a2.28" vType="auto" speedFactor="1.13" vaporized="">
        <emissions CO_abs="18799.036788" CO2_abs="431392.583630" HC_abs="95.564195" PMx_abs="8.786792" NOx_abs="186.200529" fuel_abs="137600.641669" electricity_abs="0"/>
    </tripinfo>
    <tripinfo id="a2.43" depart="322.00" departLane="893257053_0" departPos="5.10" departSpeed="0.00" departDelay="0.93" arrival="378.00" arrivalLane="40972457#2_1" arrivalPos="8.74" arrivalSpeed="7.54" duration="56.00" routeLength="423.90" waitingTime="0.00" waitingCount="0" stopTime="0.00" timeLoss="6.50" rerouteNo="0" devices="tripinfo_a2.43 emissions_a2.43 fcd_a2.43" vType="auto" speedFactor="1.04" vaporized="">
        <emissions CO_abs="2256.954275" CO2_abs="108762.956190" HC_abs="12.734649" PMx_abs="1.544778" NOx_abs="42.664884" fuel_abs="34691.135918" electricity_abs="0"/>
    </tripinfo>
    <tripinfo id="a2.31" depart="197.00" departLane="893257053_0" departPos="5.10" departSpeed="0.00" departDelay="0.59" arrival="381.00" arrivalLane="40972457#2_0" arrivalPos="8.74" arrivalSpeed="9.58" duration="184.00" routeLength="636.69" waitingTime="34.00" waitingCount="2" stopTime="0.00" timeLoss="72.60" rerouteNo="0" devices="tripinfo_a2.31 emissions_a2.31 fcd_a2.31" vType="auto" speedFactor="1.15" vaporized="">
        <emissions CO_abs="15670.250150" CO2_abs="381603.285159" HC_abs="80.171078" PMx_abs="7.647739" NOx_abs="164.006926" fuel_abs="121718.948881" electricity_abs="0"/>
    </tripinfo>
    <tripinfo id="a2.11" depart="56.00" departLane="893257053_0" departPos="5.10" departSpeed="0.00" departDelay="8.99" arrival="391.00" arrivalLane="49582171#1_1" arrivalPos="136.14" arrivalSpeed="14.19" duration="335.00" routeLength="2181.01" waitingTime="1.00" waitingCount="1" stopTime="0.00" timeLoss="67.34" rerouteNo="0" devices="tripinfo_a2.11 emissions_a2.11 fcd_a2.11" vType="auto" speedFactor="1.03" vaporized="">
        <emissions CO_abs="18825.201601" CO2_abs="783518.765428" HC_abs="103.667358" PMx_abs="13.511651" NOx_abs="320.867519" fuel_abs="249910.930414" electricity_abs="0"/>
    </tripinfo>
    <tripinfo id="a2.26" depart="170.00" departLane="893257053_0" departPos="5.10" departSpeed="0.00" departDelay="0.53" arrival="391.00" arrivalLane="60204530_0" arrivalPos="331.36" arrivalSpeed="12.71" duration="221.00" routeLength="1292.36" waitingTime="71.00" waitingCount="2" stopTime="0.00" timeLoss="100.73" rerouteNo="0" devices="tripinfo_a2.26 emissions_a2.26 fcd_a2.26" vType="auto" speedFactor="0.92" vaporized="">
        <emissions CO_abs="19264.254023" CO2_abs="590942.311929" HC_abs="101.314320" PMx_abs="11.597765" NOx_abs="250.147892" fuel_abs="188488.502863" electricity_abs="0"/>
    </tripinfo>
    <tripinfo id="a2.40" depart="312.00" departLane="893257053_1" departPos="5.10" departSpeed="0.00" departDelay="0.42" arrival="396.00" arrivalLane="60204530_0" arrivalPos="331.36" arrivalSpeed="13.02" duration="84.00" routeLength="948.95" waitingTime="0.00" waitingCount="0" stopTime="0.00" timeLoss="12.30" rerouteNo="0" devices="tripinfo_a2.40 emissions_a2.40 fcd_a2.40" vType="auto" speedFactor="1.03" vaporized="">
        <emissions CO_abs="3467.869579" CO2_abs="258145.257867" HC_abs="21.514452" PMx_abs="4.208460" NOx_abs="101.918237" fuel_abs="82336.606238" electricity_abs="0"/>
    </tripinfo>
    <tripinfo id="a2.6" depart="19.00" departLane="893257053_1" departPos="5.10" departSpeed="0.00" departDelay="0.87" arrival="402.00" arrivalLane="42141326#14_0" arrivalPos="112.33" arrivalSpeed="7.58" duration="383.00" routeLength="2467.54" waitingTime="81.00" waitingCount="3" stopTime="0.00" timeLoss="143.90" rerouteNo="0" devices="tripinfo_a2.6 emissions_a2.6 fcd_a2.6" vType="auto" speedFactor="1.05" vaporized="">
        <emissions CO_abs="28189.871162" CO2_abs="976774.670995" HC_abs="150.984412" PMx_abs="18.376058" NOx_abs="409.330428" fuel_abs="311553.109086" electricity_abs="0"/>
    </tripinfo>
    <tripinfo id="a2.10" depart="52.00" departLane="893257053_1" departPos="5.10" departSpeed="0.00" departDelay="12.97" arrival="403.00" arrivalLane="398532019#2_0" arrivalPos="151.13" arrivalSpeed="14.88" duration="351.00" routeLength="1855.08" waitingTime="133.00" waitingCount="7" stopTime="0.00" timeLoss="188.39" rerouteNo="0" devices="tripinfo_a2.10 emissions_a2.10 fcd_a2.10" vType="auto" speedFactor="1.09" vaporized="">
        <emissions CO_abs="34269.874728" CO2_abs="971445.149489" HC_abs="178.232990" PMx_abs="19.381398" NOx_abs="412.239862" fuel_abs="309855.970052" electricity_abs="0"/>
    </tripinfo>
    <tripinfo id="a2.32" depart="202.00" departLane="893257053_1" departPos="5.10" departSpeed="0.00" departDelay="0.33" arrival="406.00" arrivalLane="49577742_0" arrivalPos="178.37" arrivalSpeed="10.39" duration="204.00" routeLength="1192.37" waitingTime="64.00" waitingCount="2" stopTime="0.00" timeLoss="92.08" rerouteNo="0" devices="tripinfo_a2.32 emissions_a2.32 fcd_a2.32" vType="auto" speedFactor="1.01" vaporized="">
        <emissions CO_abs="17395.475631" CO2_abs="538836.022232" HC_abs="91.561995" PMx_abs="10.403790" NOx_abs="227.045288" fuel_abs="171868.609279" electricity_abs="0"/>
    </tripinfo>
    <tripinfo id="a2.47" depart="346.00" departLane="893257053_0" departPos="5.10" departSpeed="0.00" departDelay="0.34" arrival="416.00" arrivalLane="49582171#1_1" arrivalPos="136.14" arrivalSpeed="11.85" duration="70.00" routeLength="680.46" waitingTime="0.00" waitingCount="0" stopTime="0.00" timeLoss="10.15" rerouteNo="0" devices="tripinfo_a2.47 emissions_a2.47 fcd_a2.47" vType="auto" speedFactor="0.90" vaporized="">
        <emissions CO_abs="3226.183213" CO2_abs="200552.960078" HC_abs="19.256088" PMx_abs="3.286953" NOx_abs="80.413547" fuel_abs="63967.551313" electricity_abs="0"/>
    </tripinfo>
    <tripinfo id="a2.17" depart="95.00" departLane="893257053_0" departPos="5.10" departSpeed="0.00" departDelay="0.16" arrival="419.00" arrivalLane="45421576#2_1" arrivalPos="122.71" arrivalSpeed="12.18" duration="324.00" routeLength="2086.45" waitingTime="103.00" waitingCount="3" stopTime="0.00" timeLoss="135.75" rerouteNo="0" devices="tripinfo_a2.17 emissions_a2.17 fcd_a2.17" vType="auto" speedFactor="0.94" vaporized="">
        <emissions CO_abs="26049.840648" CO2_abs="835634.360640" HC_abs="137.686295" PMx_abs="15.596849" NOx_abs="347.198697" fuel_abs="266536.352699" electricity_abs="0"/>
    </tripinfo>
    <tripinfo id="a2.38" depart="239.00" departLane="893257053_0" departPos="5.10" departSpeed="0.00" departDelay="0.62" arrival="442.00" arrivalLane="42201276#3_0" arrivalPos="466.37" arrivalSpeed="8.33" duration="203.00" routeLength="1588.61" waitingTime="14.00" waitingCount="1" stopTime="0.00" timeLoss="48.88" rerouteNo="0" devices="tripinfo_a2.38 emissions_a2.38 fcd_a2.38" vType="auto" speedFactor="1.10" vaporized="">
        <emissions CO_abs="11383.230793" CO2_abs="529071.636840" HC_abs="64.056916" PMx_abs="8.934604" NOx_abs="215.297192" fuel_abs="168751.946826" electricity_abs="0"/>
    </tripinfo>
    <tripinfo id="a2.46" depart="327.00" departLane="893257053_1" departPos="5.10" departSpeed="0.00" departDelay="0.73" arrival="450.00" arrivalLane="264394468_0" arrivalPos="97.79" arrivalSpeed="7.97" duration="123.00" routeLength="1243.22" waitingTime="0.00" waitingCount="0" stopTime="0.00" timeLoss="24.57" rerouteNo="0" devices="tripinfo_a2.46 emissions_a2.46 fcd_a2.46" vType="auto" speedFactor="1.00" vaporized="">
        <emissions CO_abs="5933.740624" CO2_abs="369698.469315" HC_abs="35.552614" PMx_abs="6.258119" NOx_abs="149.184182" fuel_abs="117917.291237" electricity_abs="0"/>
    </tripinfo>
    <tripinfo id="a2.65" depart="430.00" departLane="893257053_1" departPos="5.10" departSpeed="0.00" departDelay="12.71" arrival="453.00" arrivalLane="-47861237_1" arrivalPos="34.13" arrivalSpeed="11.09" duration="23.00" routeLength="136.26" waitingTime="1.00" waitingCount="1" stopTime="0.00" timeLoss="8.20" rerouteNo="0" devices="tripinfo_a2.65 emissions_a2.65 fcd_a2.65" vType="auto" speedFactor="0.88" vaporized="">
        <emissions CO_abs="1993.367792" CO2_abs="69523.970604" HC_abs="10.612551" PMx_abs="1.274572" NOx_abs="28.875776" fuel_abs="22175.470188" electricity_abs="0"/>
    </tripinfo>
    <tripinfo id="a2.63" depart="426.00" departLane="893257053_0" departPos="5.10" departSpeed="0.00" departDelay="18.42" arrival="461.00" arrivalLane="410645794_0" arrivalPos="96.82" arrivalSpeed="8.73" duration="35.00" routeLength="313.74" waitingTime="1.00" waitingCount="1" stopTime="0.00" timeLoss="8.77" rerouteNo="0" devices="tripinfo_a2.63 emissions_a2.63 fcd_a2.63" vType="auto" speedFactor="0.99" vaporized="">
        <emissions CO_abs="2297.839153" CO2_abs="119887.948181" HC_abs="13.228752" PMx_abs="2.124771" NOx_abs="49.280721" fuel_abs="38239.006184" electricity_abs="0"/>
    </tripinfo>
    <tripinfo id="a2.42" depart="320.00" departLane="893257053_1" departPos="5.10" departSpeed="0.00" departDelay="0.39" arrival="463.00" arrivalLane="40972457#2_0" arrivalPos="8.74" arrivalSpeed="8.58" duration="143.00" routeLength="636.69" waitingTime="0.00" waitingCount="0" stopTime="0.00" timeLoss="25.57" rerouteNo="0" devices="tripinfo_a2.42 emissions_a2.42 fcd_a2.42" vType="auto" speedFactor="1.09" vaporized="">
        <emissions CO_abs="8823.474299" CO2_abs="258841.364728" HC_abs="46.090678" PMx_abs="4.578460" NOx_abs="107.644958" fuel_abs="82561.435371" electricity_abs="0"/>
    </tripinfo>
    <tripinfo id="a2.57" depart="417.00" departLane="893257053_0" departPos="5.10" departSpeed="0.00" departDelay="30.83" arrival="467.00" arrivalLane="40972457#2_0" arrivalPos="8.74" arrivalSpeed="8.44" duration="50.00" routeLength="423.90" waitingTime="0.00" waitingCount="0" stopTime="0.00" timeLoss="4.67" rerouteNo="0" devices="tripinfo_a2.57 emissions_a2.57 fcd_a2.57" vType="auto" speedFactor="1.14" vaporized="">
        <emissions CO_abs="1800.378099" CO2_abs="104105.966112" HC_abs="10.549278" PMx_abs="1.397033" NOx_abs="40.071850" fuel_abs="33205.620391" electricity_abs="0"/>
    </tripinfo>