<?xml version="1.0" encoding="UTF-8"?>

<!-- generated on 2024-07-04 00:20:12 by Eclipse SUMO GUI Version v1_19_0+1520-dc4640af2ac
<configuration xmlns:xsi="http://www.w3.org/2001/XMLSchema-instance" xsi:noNamespaceSchemaLocation="http://sumo.dlr.de/xsd/sumoConfiguration.xsd">

    <input>
        <net-file value="/home/edwin/Documents/ProyectoFinal/ModeladoAvHuaynacapac/huaynacapac.net.xml"/>
        <route-files value="/home/edwin/Documents/ProyectoFinal/ModeladoAvHuaynacapac/rutasflujo.rou.xml"/>
        <additional-files value="/home/edwin/Documents/ProyectoFinal/ModeladoAvHuaynacapac/huaynacapac.poly.xml,/home/edwin/Documents/ProyectoFinal/ModeladoAvHuaynacapac/detectores.add.xml"/>
    </input>

    <output>
        <emission-output value="/home/edwin/Documents/ProyectoFinal/ModeladoAvHuaynacapac/co2.xml"/>
        <fcd-output value="/home/edwin/Documents/ProyectoFinal/ModeladoAvHuaynacapac/fcd.xml"/>
        <tripinfo-output value="/home/edwin/Documents/ProyectoFinal/ModeladoAvHuaynacapac/tripinfo.xml"/>
        <edgedata-output value="/home/edwin/Documents/ProyectoFinal/ModeladoAvHuaynacapac/edgedata.xml"/>
    </output>

    <time>
        <begin value="0"/>
        <end value="3600"/>
        <step-length value="1"/>
    </time>

    <processing>
        <ignore-route-errors value="true"/>
    </processing>

    <emissions>
        <device.emissions.probability value="1"/>
    </emissions>

</configuration>
-->

<tripinfos xmlns:xsi="http://www.w3.org/2001/XMLSchema-instance" xsi:noNamespaceSchemaLocation="http://sumo.dlr.de/xsd/tripinfo_file.xsd">
    <tripinfo id="f_1.0" depart="3.00" departLane="893257053_0" departPos="5.10" departSpeed="0.00" departDelay="3.00" arrival="52.00" arrivalLane="-389741418_1" arrivalPos="38.67" arrivalSpeed="12.18" duration="49.00" routeLength="88.07" waitingTime="33.00" waitingCount="1" stopTime="0.00" timeLoss="39.26" rerouteNo="0" devices="tripinfo_f_1.0 routing_f_1.0 emissions_f_1.0 fcd_f_1.0" vType="DEFAULT_VEHTYPE" speedFactor="0.94" vaporized="">
        <emissions CO_abs="6996.580074" CO2_abs="148288.512712" HC_abs="35.339556" PMx_abs="3.371468" NOx_abs="65.968836" fuel_abs="47299.328163" electricity_abs="0"/>
    </tripinfo>
    <tripinfo id="f_1.1" depart="9.00" departLane="893257053_0" departPos="5.10" departSpeed="0.00" departDelay="0.00" arrival="55.00" arrivalLane="-389741418_1" arrivalPos="38.67" arrivalSpeed="13.93" duration="46.00" routeLength="88.07" waitingTime="29.00" waitingCount="1" stopTime="0.00" timeLoss="36.59" rerouteNo="0" devices="tripinfo_f_1.1 routing_f_1.1 emissions_f_1.1 fcd_f_1.1" vType="DEFAULT_VEHTYPE" speedFactor="1.01" vaporized="">
        <emissions CO_abs="6631.862806" CO2_abs="145832.801236" HC_abs="33.629275" PMx_abs="3.320717" NOx_abs="64.941906" fuel_abs="46515.867868" electricity_abs="0"/>
    </tripinfo>
    <tripinfo id="f_1.2" depart="18.00" departLane="893257053_0" departPos="5.10" departSpeed="0.00" departDelay="0.00" arrival="57.00" arrivalLane="-389741418_1" arrivalPos="38.67" arrivalSpeed="14.66" duration="39.00" routeLength="88.07" waitingTime="22.00" waitingCount="1" stopTime="0.00" timeLoss="30.25" rerouteNo="0" devices="tripinfo_f_1.2 routing_f_1.2 emissions_f_1.2 fcd_f_1.2" vType="DEFAULT_VEHTYPE" speedFactor="1.08" vaporized="">
        <emissions CO_abs="5422.860329" CO2_abs="127888.692276" HC_abs="27.702286" PMx_abs="2.852034" NOx_abs="56.565921" fuel_abs="40792.105572" electricity_abs="0"/>
    </tripinfo>
    <tripinfo id="f_1.4" depart="39.00" departLane="893257053_0" departPos="5.10" departSpeed="0.00" departDelay="3.00" arrival="59.00" arrivalLane="-389741418_1" arrivalPos="38.67" arrivalSpeed="13.64" duration="20.00" routeLength="88.07" waitingTime="5.00" waitingCount="1" stopTime="0.00" timeLoss="11.28" rerouteNo="0" devices="tripinfo_f_1.4 routing_f_1.4 emissions_f_1.4 fcd_f_1.4" vType="DEFAULT_VEHTYPE" speedFactor="1.05" vaporized="">
        <emissions CO_abs="2286.058730" CO2_abs="76831.419006" HC_abs="12.225120" PMx_abs="1.608109" NOx_abs="33.418369" fuel_abs="24506.080335" electricity_abs="0"/>
    </tripinfo>
    <tripinfo id="f_0.0" depart="0.00" departLane="893257053_0" departPos="5.10" departSpeed="0.00" departDelay="0.00" arrival="62.00" arrivalLane="559164160_0" arrivalPos="106.70" arrivalSpeed="8.45" duration="62.00" routeLength="164.75" waitingTime="36.00" waitingCount="1" stopTime="0.00" timeLoss="42.97" rerouteNo="0" devices="tripinfo_f_0.0 routing_f_0.0 emissions_f_0.0 fcd_f_0.0" vType="DEFAULT_VEHTYPE" speedFactor="1.06" vaporized="">
        <emissions CO_abs="7520.187352" CO2_abs="160926.096408" HC_abs="37.995759" PMx_abs="3.525036" NOx_abs="70.798652" fuel_abs="51330.416123" electricity_abs="0"/>
    </tripinfo>
    <tripinfo id="f_1.3" depart="27.00" departLane="893257053_0" departPos="5.10" departSpeed="0.00" departDelay="0.00" arrival="62.00" arrivalLane="-389741418_1" arrivalPos="38.67" arrivalSpeed="13.63" duration="35.00" routeLength="88.07" waitingTime="19.00" waitingCount="2" stopTime="0.00" timeLoss="25.95" rerouteNo="0" devices="tripinfo_f_1.3 routing_f_1.3 emissions_f_1.3 fcd_f_1.3" vType="DEFAULT_VEHTYPE" speedFactor="1.03" vaporized="">
        <emissions CO_abs="4887.764517" CO2_abs="116596.223265" HC_abs="24.995681" PMx_abs="2.572003" NOx_abs="51.429324" fuel_abs="37190.188478" electricity_abs="0"/>
    </tripinfo>
    <tripinfo id="f_1.5" depart="45.00" departLane="893257053_0" departPos="5.10" departSpeed="0.00" departDelay="0.00" arrival="65.00" arrivalLane="-389741418_1" arrivalPos="38.67" arrivalSpeed="11.07" duration="20.00" routeLength="88.07" waitingTime="5.00" waitingCount="1" stopTime="0.00" timeLoss="9.98" rerouteNo="0" devices="tripinfo_f_1.5 routing_f_1.5 emissions_f_1.5 fcd_f_1.5" vType="DEFAULT_VEHTYPE" speedFactor="0.89" vaporized="">
        <emissions CO_abs="2127.599143" CO2_abs="65606.358412" HC_abs="11.238501" PMx_abs="1.406036" NOx_abs="28.800918" fuel_abs="20925.815217" electricity_abs="0"/>
    </tripinfo>
    <tripinfo id="f_1.6" depart="54.00" departLane="893257053_0" departPos="5.10" departSpeed="0.00" departDelay="0.00" arrival="68.00" arrivalLane="-389741418_1" arrivalPos="38.67" arrivalSpeed="12.82" duration="14.00" routeLength="88.07" waitingTime="0.00" waitingCount="0" stopTime="0.00" timeLoss="3.73" rerouteNo="0" devices="tripinfo_f_1.6 routing_f_1.6 emissions_f_1.6 fcd_f_1.6" vType="DEFAULT_VEHTYPE" speedFactor="0.94" vaporized="">
        <emissions CO_abs="1199.363948" CO2_abs="54556.696620" HC_abs="6.746109" PMx_abs="1.053239" NOx_abs="23.173768" fuel_abs="17401.184956" electricity_abs="0"/>
    </tripinfo>
    <tripinfo id="f_0.1" depart="36.00" departLane="893257053_0" departPos="5.10" departSpeed="0.00" departDelay="0.00" arrival="69.00" arrivalLane="559164160_0" arrivalPos="106.70" arrivalSpeed="6.67" duration="33.00" routeLength="164.75" waitingTime="2.00" waitingCount="1" stopTime="0.00" timeLoss="9.07" rerouteNo="0" devices="tripinfo_f_0.1 routing_f_0.1 emissions_f_0.1 fcd_f_0.1" vType="DEFAULT_VEHTYPE" speedFactor="0.83" vaporized="">
        <emissions CO_abs="2286.780613" CO2_abs="71348.704453" HC_abs="12.055706" PMx_abs="1.309196" NOx_abs="30.015713" fuel_abs="22757.618147" electricity_abs="0"/>
    </tripinfo>
    <tripinfo id="f_1.7" depart="63.00" departLane="893257053_0" departPos="5.10" departSpeed="0.00" departDelay="0.00" arrival="77.00" arrivalLane="-389741418_1" arrivalPos="38.67" arrivalSpeed="10.85" duration="14.00" routeLength="88.07" waitingTime="0.00" waitingCount="0" stopTime="0.00" timeLoss="2.89" rerouteNo="0" devices="tripinfo_f_1.7 routing_f_1.7 emissions_f_1.7 fcd_f_1.7" vType="DEFAULT_VEHTYPE" speedFactor="0.86" vaporized="">
        <emissions CO_abs="1053.210050" CO2_abs="45055.384904" HC_abs="5.850926" PMx_abs="0.853166" NOx_abs="19.082345" fuel_abs="14370.739388" electricity_abs="0"/>
    </tripinfo>
    <tripinfo id="f_1.8" depart="75.00" departLane="893257053_0" departPos="5.10" departSpeed="0.00" departDelay="3.00" arrival="88.00" arrivalLane="-389741418_1" arrivalPos="38.67" arrivalSpeed="13.54" duration="13.00" routeLength="88.07" waitingTime="0.00" waitingCount="0" stopTime="0.00" timeLoss="3.49" rerouteNo="0" devices="tripinfo_f_1.8 routing_f_1.8 emissions_f_1.8 fcd_f_1.8" vType="DEFAULT_VEHTYPE" speedFactor="1.03" vaporized="">
        <emissions CO_abs="1210.448252" CO2_abs="57333.944074" HC_abs="6.857618" PMx_abs="1.076000" NOx_abs="24.150288" fuel_abs="18287.008203" electricity_abs="0"/>
    </tripinfo>
    <tripinfo id="f_0.2" depart="72.00" departLane="893257053_0" departPos="5.10" departSpeed="0.00" departDelay="0.00" arrival="94.00" arrivalLane="559164160_0" arrivalPos="106.70" arrivalSpeed="8.60" duration="22.00" routeLength="164.75" waitingTime="0.00" waitingCount="0" stopTime="0.00" timeLoss="3.01" rerouteNo="0" devices="tripinfo_f_0.2 routing_f_0.2 emissions_f_0.2 fcd_f_0.2" vType="DEFAULT_VEHTYPE" speedFactor="1.09" vaporized="">
        <emissions CO_abs="1131.721609" CO2_abs="54533.769465" HC_abs="6.400656" PMx_abs="0.850514" NOx_abs="21.852297" fuel_abs="17394.059268" electricity_abs="0"/>
    </tripinfo>
    <tripinfo id="f_1.9" depart="81.00" departLane="893257053_0" departPos="5.10" departSpeed="0.00" departDelay="0.00" arrival="142.00" arrivalLane="-389741418_1" arrivalPos="38.67" arrivalSpeed="13.70" duration="61.00" routeLength="88.07" waitingTime="46.00" waitingCount="1" stopTime="0.00" timeLoss="51.86" rerouteNo="0" devices="tripinfo_f_1.9 routing_f_1.9 emissions_f_1.9 fcd_f_1.9" vType="DEFAULT_VEHTYPE" speedFactor="1.05" vaporized="">
        <emissions CO_abs="9116.441824" CO2_abs="188245.110502" HC_abs="45.943289" PMx_abs="4.377964" NOx_abs="84.288973" fuel_abs="60044.259119" electricity_abs="0"/>
    </tripinfo>
    <tripinfo id="f_1.10" depart="90.00" departLane="893257053_0" departPos="5.10" departSpeed="0.00" departDelay="0.00" arrival="144.00" arrivalLane="-389741418_1" arrivalPos="38.67" arrivalSpeed="14.47" duration="54.00" routeLength="88.07" waitingTime="37.00" waitingCount="1" stopTime="0.00" timeLoss="45.74" rerouteNo="0" devices="tripinfo_f_1.10 routing_f_1.10 emissions_f_1.10 fcd_f_1.10" vType="DEFAULT_VEHTYPE" speedFactor="1.12" vaporized="">
        <emissions CO_abs="7972.637810" CO2_abs="169401.652710" HC_abs="40.291025" PMx_abs="3.907246" NOx_abs="75.718320" fuel_abs="54033.673873" electricity_abs="0"/>
    </tripinfo>
    <tripinfo id="f_1.13" depart="117.00" departLane="893257053_0" departPos="5.10" departSpeed="0.00" departDelay="0.00" arrival="146.00" arrivalLane="-389741418_1" arrivalPos="38.67" arrivalSpeed="12.11" duration="29.00" routeLength="88.07" waitingTime="15.00" waitingCount="1" stopTime="0.00" timeLoss="19.43" rerouteNo="0" devices="tripinfo_f_1.13 routing_f_1.13 emissions_f_1.13 fcd_f_1.13" vType="DEFAULT_VEHTYPE" speedFactor="0.94" vaporized="">
        <emissions CO_abs="3893.636473" CO2_abs="99999.084794" HC_abs="20.050400" PMx_abs="2.164230" NOx_abs="43.799404" fuel_abs="31896.130783" electricity_abs="0"/>
    </tripinfo>
    <tripinfo id="f_1.11" depart="99.00" departLane="893257053_0" departPos="5.10" departSpeed="0.00" departDelay="0.00" arrival="149.00" arrivalLane="-389741418_1" arrivalPos="38.67" arrivalSpeed="12.96" duration="50.00" routeLength="88.07" waitingTime="33.00" waitingCount="2" stopTime="0.00" timeLoss="40.83" rerouteNo="0" devices="tripinfo_f_1.11 routing_f_1.11 emissions_f_1.11 fcd_f_1.11" vType="DEFAULT_VEHTYPE" speedFactor="0.99" vaporized="">
        <emissions CO_abs="7203.039541" CO2_abs="151527.038295" HC_abs="36.362911" PMx_abs="3.496041" NOx_abs="67.802259" fuel_abs="48332.286420" electricity_abs="0"/>
    </tripinfo>
    <tripinfo id="f_1.14" depart="126.00" departLane="893257053_0" departPos="5.10" departSpeed="0.00" departDelay="0.00" arrival="152.00" arrivalLane="-389741418_1" arrivalPos="38.67" arrivalSpeed="11.86" duration="26.00" routeLength="88.07" waitingTime="11.00" waitingCount="1" stopTime="0.00" timeLoss="16.04" rerouteNo="0" devices="tripinfo_f_1.14 routing_f_1.14 emissions_f_1.14 fcd_f_1.14" vType="DEFAULT_VEHTYPE" speedFactor="0.94" vaporized="">
        <emissions CO_abs="3217.360577" CO2_abs="87212.879371" HC_abs="16.666373" PMx_abs="1.847512" NOx_abs="37.983090" fuel_abs="27817.717897" electricity_abs="0"/>
    </tripinfo>
    <tripinfo id="f_0.3" depart="108.00" departLane="893257053_0" departPos="5.10" departSpeed="0.00" departDelay="0.00" arrival="155.00" arrivalLane="559164160_0" arrivalPos="106.70" arrivalSpeed="7.10" duration="47.00" routeLength="164.75" waitingTime="17.00" waitingCount="1" stopTime="0.00" timeLoss="24.82" rerouteNo="0" devices="tripinfo_f_0.3 routing_f_0.3 emissions_f_0.3 fcd_f_0.3" vType="DEFAULT_VEHTYPE" speedFactor="0.93" vaporized="">
        <emissions CO_abs="4758.355867" CO2_abs="113649.969205" HC_abs="24.299768" PMx_abs="2.322745" NOx_abs="49.075571" fuel_abs="36250.629288" electricity_abs="0"/>
    </tripinfo>
    <tripinfo id="f_1.12" depart="110.00" departLane="893257053_0" departPos="5.10" departSpeed="0.00" departDelay="2.00" arrival="155.00" arrivalLane="-389741418_1" arrivalPos="38.67" arrivalSpeed="12.11" duration="45.00" routeLength="88.07" waitingTime="24.00" waitingCount="2" stopTime="0.00" timeLoss="34.31" rerouteNo="0" devices="tripinfo_f_1.12 routing_f_1.12 emissions_f_1.12 fcd_f_1.12" vType="DEFAULT_VEHTYPE" speedFactor="0.88" vaporized="">
        <emissions CO_abs="6086.271829" CO2_abs="131037.051863" HC_abs="30.781639" PMx_abs="2.929842" NOx_abs="58.062302" fuel_abs="41796.647880" electricity_abs="0"/>
    </tripinfo>
    <tripinfo id="f_1.15" depart="135.00" departLane="893257053_0" departPos="5.10" departSpeed="0.00" departDelay="0.00" arrival="157.00" arrivalLane="-389741418_1" arrivalPos="38.67" arrivalSpeed="15.49" duration="22.00" routeLength="88.07" waitingTime="4.00" waitingCount="1" stopTime="0.00" timeLoss="13.56" rerouteNo="0" devices="tripinfo_f_1.15 routing_f_1.15 emissions_f_1.15 fcd_f_1.15" vType="DEFAULT_VEHTYPE" speedFactor="1.16" vaporized="">
        <emissions CO_abs="2650.388922" CO2_abs="86212.509392" HC_abs="14.102993" PMx_abs="1.798752" NOx_abs="37.400662" fuel_abs="27498.329790" electricity_abs="0"/>
    </tripinfo>
    <tripinfo id="f_1.16" depart="147.00" departLane="893257053_0" departPos="5.10" departSpeed="0.00" departDelay="3.00" arrival="160.00" arrivalLane="-389741418_1" arrivalPos="38.67" arrivalSpeed="13.06" duration="13.00" routeLength="88.07" waitingTime="0.00" waitingCount="0" stopTime="0.00" timeLoss="3.51" rerouteNo="0" devices="tripinfo_f_1.16 routing_f_1.16 emissions_f_1.16 fcd_f_1.16" vType="DEFAULT_VEHTYPE" speedFactor="1.01" vaporized="">
        <emissions CO_abs="1096.596021" CO2_abs="51025.524527" HC_abs="6.190213" PMx_abs="0.953180" NOx_abs="21.428069" fuel_abs="16274.919744" electricity_abs="0"/>
    </tripinfo>
    <tripinfo id="f_1.17" depart="153.00" departLane="893257053_0" departPos="5.10" departSpeed="0.00" departDelay="0.00" arrival="166.00" arrivalLane="-389741418_1" arrivalPos="38.67" arrivalSpeed="12.97" duration="13.00" routeLength="88.07" waitingTime="0.00" waitingCount="0" stopTime="0.00" timeLoss="3.73" rerouteNo="0" devices="tripinfo_f_1.17 routing_f_1.17 emissions_f_1.17 fcd_f_1.17" vType="DEFAULT_VEHTYPE" speedFactor="0.97" vaporized="">
        <emissions CO_abs="1212.711693" CO2_abs="54075.634991" HC_abs="6.788626" PMx_abs="1.011373" NOx_abs="22.753295" fuel_abs="17247.800030" electricity_abs="0"/>
    </tripinfo>
    <tripinfo id="f_0.4" depart="144.00" departLane="893257053_0" departPos="5.10" departSpeed="0.00" departDelay="0.00" arrival="168.00" arrivalLane="559164160_0" arrivalPos="106.70" arrivalSpeed="7.60" duration="24.00" routeLength="164.75" waitingTime="0.00" waitingCount="0" stopTime="0.00" timeLoss="3.92" rerouteNo="0" devices="tripinfo_f_0.4 routing_f_0.4 emissions_f_0.4 fcd_f_0.4" vType="DEFAULT_VEHTYPE" speedFactor="1.02" vaporized="">
        <emissions CO_abs="1279.703355" CO2_abs="54182.078049" HC_abs="7.054446" PMx_abs="0.812398" NOx_abs="21.563748" fuel_abs="17282.014675" electricity_abs="0"/>
    </tripinfo>
    <tripinfo id="f_1.18" depart="162.00" departLane="893257053_0" departPos="5.10" departSpeed="0.00" departDelay="0.00" arrival="175.00" arrivalLane="-389741418_1" arrivalPos="38.67" arrivalSpeed="11.29" duration="13.00" routeLength="88.07" waitingTime="0.00" waitingCount="0" stopTime="0.00" timeLoss="3.19" rerouteNo="0" devices="tripinfo_f_1.18 routing_f_1.18 emissions_f_1.18 fcd_f_1.18" vType="DEFAULT_VEHTYPE" speedFactor="0.89" vaporized="">
        <emissions CO_abs="1004.491280" CO2_abs="44164.729467" HC_abs="5.606378" PMx_abs="0.821262" NOx_abs="18.594837" fuel_abs="14086.658775" electricity_abs="0"/>
    </tripinfo>
    <tripinfo id="f_1.19" depart="171.00" departLane="893257053_0" departPos="5.10" departSpeed="0.00" departDelay="0.00" arrival="232.00" arrivalLane="-389741418_1" arrivalPos="38.67" arrivalSpeed="11.31" duration="61.00" routeLength="88.07" waitingTime="46.00" waitingCount="1" stopTime="0.00" timeLoss="50.57" rerouteNo="0" devices="tripinfo_f_1.19 routing_f_1.19 emissions_f_1.19 fcd_f_1.19" vType="DEFAULT_VEHTYPE" speedFactor="0.83" vaporized="">
        <emissions CO_abs="8987.376142" CO2_abs="174909.027931" HC_abs="45.024261" PMx_abs="4.066756" NOx_abs="78.400913" fuel_abs="55790.791306" electricity_abs="0"/>
    </tripinfo>
    <tripinfo id="f_1.20" depart="183.00" departLane="893257053_0" departPos="5.10" departSpeed="0.00" departDelay="3.00" arrival="235.00" arrivalLane="-389741418_1" arrivalPos="38.67" arrivalSpeed="12.19" duration="52.00" routeLength="88.07" waitingTime="35.00" waitingCount="1" stopTime="0.00" timeLoss="41.89" rerouteNo="0" devices="tripinfo_f_1.20 routing_f_1.20 emissions_f_1.20 fcd_f_1.20" vType="DEFAULT_VEHTYPE" speedFactor="0.92" vaporized="">
        <emissions CO_abs="7414.137508" CO2_abs="153176.941285" HC_abs="37.356904" PMx_abs="3.521041" NOx_abs="68.420798" fuel_abs="48858.654563" electricity_abs="0"/>
    </tripinfo>
    <tripinfo id="f_1.21" depart="189.00" departLane="893257053_0" departPos="5.10" departSpeed="0.00" departDelay="0.00" arrival="238.00" arrivalLane="-389741418_1" arrivalPos="38.67" arrivalSpeed="12.68" duration="49.00" routeLength="88.07" waitingTime="31.00" waitingCount="1" stopTime="0.00" timeLoss="38.97" rerouteNo="0" devices="tripinfo_f_1.21 routing_f_1.21 emissions_f_1.21 fcd_f_1.21" vType="DEFAULT_VEHTYPE" speedFactor="0.95" vaporized="">
        <emissions CO_abs="6992.297939" CO2_abs="147732.498272" HC_abs="35.312311" PMx_abs="3.393522" NOx_abs="65.993209" fuel_abs="47121.948134" electricity_abs="0"/>
    </tripinfo>
    <tripinfo id="f_1.23" depart="207.00" departLane="893257053_0" departPos="5.10" departSpeed="0.00" departDelay="0.00" arrival="240.00" arrivalLane="-389741418_1" arrivalPos="38.67" arrivalSpeed="12.23" duration="33.00" routeLength="88.07" waitingTime="16.00" waitingCount="2" stopTime="0.00" timeLoss="23.35" rerouteNo="0" devices="tripinfo_f_1.23 routing_f_1.23 emissions_f_1.23 fcd_f_1.23" vType="DEFAULT_VEHTYPE" speedFactor="0.93" vaporized="">
        <emissions CO_abs="4502.575749" CO2_abs="109141.148268" HC_abs="23.061716" PMx_abs="2.376530" NOx_abs="48.013411" fuel_abs="34812.259137" electricity_abs="0"/>
    </tripinfo>
    <tripinfo id="f_1.22" depart="198.00" departLane="893257053_0" departPos="5.10" departSpeed="0.00" departDelay="0.00" arrival="242.00" arrivalLane="-389741418_1" arrivalPos="38.67" arrivalSpeed="14.80" duration="44.00" routeLength="88.07" waitingTime="24.00" waitingCount="1" stopTime="0.00" timeLoss="35.80" rerouteNo="0" devices="tripinfo_f_1.22 routing_f_1.22 emissions_f_1.22 fcd_f_1.22" vType="DEFAULT_VEHTYPE" speedFactor="1.13" vaporized="">
        <emissions CO_abs="5998.066269" CO2_abs="135717.506758" HC_abs="30.507507" PMx_abs="3.073339" NOx_abs="60.315117" fuel_abs="43289.331488" electricity_abs="0"/>
    </tripinfo>
    <tripinfo id="f_0.5" depart="180.00" departLane="893257053_0" departPos="5.10" departSpeed="0.00" departDelay="0.00" arrival="245.00" arrivalLane="559164160_0" arrivalPos="106.70" arrivalSpeed="6.37" duration="65.00" routeLength="164.75" waitingTime="37.00" waitingCount="1" stopTime="0.00" timeLoss="42.06" rerouteNo="0" devices="tripinfo_f_0.5 routing_f_0.5 emissions_f_0.5 fcd_f_0.5" vType="DEFAULT_VEHTYPE" speedFactor="0.87" vaporized="">
        <emissions CO_abs="7880.428325" CO2_abs="163203.203778" HC_abs="39.671508" PMx_abs="3.529796" NOx_abs="71.590797" fuel_abs="52056.948485" electricity_abs="0"/>
    </tripinfo>
    <tripinfo id="f_1.25" depart="231.00" departLane="893257053_0" departPos="5.10" departSpeed="0.00" departDelay="6.00" arrival="245.00" arrivalLane="-389741418_1" arrivalPos="38.67" arrivalSpeed="13.72" duration="14.00" routeLength="88.07" waitingTime="0.00" waitingCount="0" stopTime="0.00" timeLoss="4.79" rerouteNo="0" devices="tripinfo_f_1.25 routing_f_1.25 emissions_f_1.25 fcd_f_1.25" vType="DEFAULT_VEHTYPE" speedFactor="1.01" vaporized="">
        <emissions CO_abs="1291.110920" CO2_abs="59292.353658" HC_abs="7.288049" PMx_abs="1.210856" NOx_abs="25.646355" fuel_abs="18911.565646" electricity_abs="0"/>
    </tripinfo>
    <tripinfo id="f_1.24" depart="219.00" departLane="893257053_0" departPos="5.10" departSpeed="0.00" departDelay="3.00" arrival="247.00" arrivalLane="-389741418_1" arrivalPos="38.67" arrivalSpeed="14.88" duration="28.00" routeLength="88.07" waitingTime="8.00" waitingCount="1" stopTime="0.00" timeLoss="19.77" rerouteNo="0" devices="tripinfo_f_1.24 routing_f_1.24 emissions_f_1.24 fcd_f_1.24" vType="DEFAULT_VEHTYPE" speedFactor="1.15" vaporized="">
        <emissions CO_abs="3676.173439" CO2_abs="99810.266895" HC_abs="19.093034" PMx_abs="2.163877" NOx_abs="43.750584" fuel_abs="31835.767979" electricity_abs="0"/>
    </tripinfo>
    <tripinfo id="f_1.26" depart="234.00" departLane="893257053_0" departPos="5.10" departSpeed="0.00" departDelay="0.00" arrival="248.00" arrivalLane="-389741418_1" arrivalPos="38.67" arrivalSpeed="14.52" duration="14.00" routeLength="88.07" waitingTime="1.00" waitingCount="1" stopTime="0.00" timeLoss="6.70" rerouteNo="0" devices="tripinfo_f_1.26 routing_f_1.26 emissions_f_1.26 fcd_f_1.26" vType="DEFAULT_VEHTYPE" speedFactor="1.17" vaporized="">
        <emissions CO_abs="1594.145401" CO2_abs="61728.036691" HC_abs="8.716594" PMx_abs="1.245005" NOx_abs="26.502841" fuel_abs="19688.621669" electricity_abs="0"/>
    </tripinfo>
    <tripinfo id="f_0.6" depart="216.00" departLane="893257053_0" departPos="5.10" departSpeed="0.00" departDelay="0.00" arrival="250.00" arrivalLane="559164160_0" arrivalPos="106.70" arrivalSpeed="9.52" duration="34.00" routeLength="164.75" waitingTime="7.00" waitingCount="1" stopTime="0.00" timeLoss="16.36" rerouteNo="0" devices="tripinfo_f_0.6 routing_f_0.6 emissions_f_0.6 fcd_f_0.6" vType="DEFAULT_VEHTYPE" speedFactor="1.18" vaporized="">
        <emissions CO_abs="3214.786857" CO2_abs="93400.152050" HC_abs="16.787103" PMx_abs="1.712917" NOx_abs="38.961402" fuel_abs="29791.387268" electricity_abs="0"/>
    </tripinfo>
    <tripinfo id="f_1.27" depart="243.00" departLane="893257053_0" departPos="5.10" departSpeed="0.00" departDelay="0.00" arrival="255.00" arrivalLane="-389741418_1" arrivalPos="38.67" arrivalSpeed="13.32" duration="12.00" routeLength="88.07" waitingTime="0.00" waitingCount="0" stopTime="0.00" timeLoss="3.02" rerouteNo="0" devices="tripinfo_f_1.27 routing_f_1.27 emissions_f_1.27 fcd_f_1.27" vType="DEFAULT_VEHTYPE" speedFactor="0.99" vaporized="">
        <emissions CO_abs="1158.366190" CO2_abs="53241.065626" HC_abs="6.525723" PMx_abs="1.013636" NOx_abs="22.546213" fuel_abs="16981.563229" electricity_abs="0"/>
    </tripinfo>
    <tripinfo id="f_1.28" depart="255.00" departLane="893257053_0" departPos="5.10" departSpeed="0.00" departDelay="3.00" arrival="267.00" arrivalLane="-389741418_1" arrivalPos="38.67" arrivalSpeed="12.90" duration="12.00" routeLength="88.07" waitingTime="0.00" waitingCount="0" stopTime="0.00" timeLoss="2.75" rerouteNo="0" devices="tripinfo_f_1.28 routing_f_1.28 emissions_f_1.28 fcd_f_1.28" vType="DEFAULT_VEHTYPE" speedFactor="0.97" vaporized="">
        <emissions CO_abs="1082.561562" CO2_abs="50802.088776" HC_abs="6.126062" PMx_abs="0.978393" NOx_abs="21.587448" fuel_abs="16203.609396" electricity_abs="0"/>
    </tripinfo>
    <tripinfo id="f_0.7" depart="252.00" departLane="893257053_0" departPos="5.10" departSpeed="0.00" departDelay="0.00" arrival="275.00" arrivalLane="559164160_0" arrivalPos="106.70" arrivalSpeed="7.56" duration="23.00" routeLength="164.75" waitingTime="0.00" waitingCount="0" stopTime="0.00" timeLoss="3.35" rerouteNo="0" devices="tripinfo_f_0.7 routing_f_0.7 emissions_f_0.7 fcd_f_0.7" vType="DEFAULT_VEHTYPE" speedFactor="1.02" vaporized="">
        <emissions CO_abs="1183.661171" CO2_abs="51881.711586" HC_abs="6.558835" PMx_abs="0.738145" NOx_abs="20.376743" fuel_abs="16548.305305" electricity_abs="0"/>
    </tripinfo>
    <tripinfo id="f_1.29" depart="261.00" departLane="893257053_0" departPos="5.10" departSpeed="0.00" departDelay="0.00" arrival="321.00" arrivalLane="-389741418_1" arrivalPos="38.67" arrivalSpeed="14.35" duration="60.00" routeLength="88.07" waitingTime="46.00" waitingCount="1" stopTime="0.00" timeLoss="52.72" rerouteNo="0" devices="tripinfo_f_1.29 routing_f_1.29 emissions_f_1.29 fcd_f_1.29" vType="DEFAULT_VEHTYPE" speedFactor="1.18" vaporized="">
        <emissions CO_abs="9329.849976" CO2_abs="192165.257962" HC_abs="47.015070" PMx_abs="4.518270" NOx_abs="86.429181" fuel_abs="61294.616683" electricity_abs="0"/>
    </tripinfo>
    <tripinfo id="f_1.30" depart="270.00" departLane="893257053_0" departPos="5.10" departSpeed="0.00" departDelay="0.00" arrival="323.00" arrivalLane="-389741418_1" arrivalPos="38.67" arrivalSpeed="14.60" duration="53.00" routeLength="88.07" waitingTime="39.00" waitingCount="1" stopTime="0.00" timeLoss="45.19" rerouteNo="0" devices="tripinfo_f_1.30 routing_f_1.30 emissions_f_1.30 fcd_f_1.30" vType="DEFAULT_VEHTYPE" speedFactor="1.10" vaporized="">
        <emissions CO_abs="7969.855481" CO2_abs="168318.367286" HC_abs="40.266007" PMx_abs="3.957665" NOx_abs="75.716213" fuel_abs="53688.086209" electricity_abs="0"/>
    </tripinfo>
    <tripinfo id="f_1.31" depart="279.00" departLane="893257053_0" departPos="5.10" departSpeed="0.00" departDelay="0.00" arrival="328.00" arrivalLane="-389741418_1" arrivalPos="38.67" arrivalSpeed="12.20" duration="49.00" routeLength="88.07" waitingTime="30.00" waitingCount="1" stopTime="0.00" timeLoss="38.64" rerouteNo="0" devices="tripinfo_f_1.31 routing_f_1.31 emissions_f_1.31 fcd_f_1.31" vType="DEFAULT_VEHTYPE" speedFactor="0.90" vaporized="">
        <emissions CO_abs="6934.007136" CO2_abs="144595.916156" HC_abs="34.931843" PMx_abs="3.282050" NOx_abs="64.259023" fuel_abs="46121.584196" electricity_abs="0"/>
    </tripinfo>
    <tripinfo id="f_1.33" depart="297.00" departLane="893257053_0" departPos="5.10" departSpeed="0.00" departDelay="0.00" arrival="329.00" arrivalLane="-389741418_1" arrivalPos="38.67" arrivalSpeed="14.20" duration="32.00" routeLength="88.07" waitingTime="16.00" waitingCount="2" stopTime="0.00" timeLoss="24.08" rerouteNo="0" devices="tripinfo_f_1.33 routing_f_1.33 emissions_f_1.33 fcd_f_1.33" vType="DEFAULT_VEHTYPE" speedFactor="1.09" vaporized="">
        <emissions CO_abs="4647.641030" CO2_abs="116997.964442" HC_abs="23.926164" PMx_abs="2.616622" NOx_abs="51.858302" fuel_abs="37318.124814" electricity_abs="0"/>
    </tripinfo>
    <tripinfo id="f_1.34" depart="306.00" departLane="893257053_0" departPos="5.10" departSpeed="0.00" departDelay="0.00" arrival="332.00" arrivalLane="-389741418_1" arrivalPos="38.67" arrivalSpeed="12.81" duration="26.00" routeLength="88.07" waitingTime="9.00" waitingCount="2" stopTime="0.00" timeLoss="17.45" rerouteNo="0" devices="tripinfo_f_1.34 routing_f_1.34 emissions_f_1.34 fcd_f_1.34" vType="DEFAULT_VEHTYPE" speedFactor="1.04" vaporized="">
        <emissions CO_abs="3288.311615" CO2_abs="89636.109981" HC_abs="17.086317" PMx_abs="1.947249" NOx_abs="39.438127" fuel_abs="28590.567586" electricity_abs="0"/>
    </tripinfo>
    <tripinfo id="f_0.8" depart="288.00" departLane="893257053_0" departPos="5.10" departSpeed="0.00" departDelay="0.00" arrival="333.00" arrivalLane="559164160_0" arrivalPos="106.70" arrivalSpeed="7.88" duration="45.00" routeLength="164.75" waitingTime="18.00" waitingCount="1" stopTime="0.00" timeLoss="25.13" rerouteNo="0" devices="tripinfo_f_0.8 routing_f_0.8 emissions_f_0.8 fcd_f_0.8" vType="DEFAULT_VEHTYPE" speedFactor="1.03" vaporized="">
        <emissions CO_abs="4794.612987" CO2_abs="118068.014421" HC_abs="24.574624" PMx_abs="2.424197" NOx_abs="51.008011" fuel_abs="37659.738047" electricity_abs="0"/>
    </tripinfo>
    <tripinfo id="f_1.32" depart="291.00" departLane="893257053_0" departPos="5.10" departSpeed="0.00" departDelay="3.00" arrival="335.00" arrivalLane="-389741418_1" arrivalPos="38.67" arrivalSpeed="12.34" duration="44.00" routeLength="88.07" waitingTime="25.00" waitingCount="2" stopTime="0.00" timeLoss="34.66" rerouteNo="0" devices="tripinfo_f_1.32 routing_f_1.32 emissions_f_1.32 fcd_f_1.32" vType="DEFAULT_VEHTYPE" speedFactor="0.96" vaporized="">
        <emissions CO_abs="6140.700837" CO2_abs="132136.631965" HC_abs="31.058187" PMx_abs="2.968963" NOx_abs="58.626207" fuel_abs="42147.365912" electricity_abs="0"/>
    </tripinfo>
    <tripinfo id="f_1.35" depart="315.00" departLane="893257053_0" departPos="5.10" departSpeed="0.00" departDelay="0.00" arrival="337.00" arrivalLane="-389741418_1" arrivalPos="38.67" arrivalSpeed="12.97" duration="22.00" routeLength="88.07" waitingTime="7.00" waitingCount="1" stopTime="0.00" timeLoss="13.29" rerouteNo="0" devices="tripinfo_f_1.35 routing_f_1.35 emissions_f_1.35 fcd_f_1.35" vType="DEFAULT_VEHTYPE" speedFactor="1.04" vaporized="">