<?xml version="1.0" encoding="UTF-8"?>

<!-- generated on 2024-07-09 14:23:11 by Eclipse SUMO sumo Version v1_19_0+1520-dc4640af2ac
<configuration xmlns:xsi="http://www.w3.org/2001/XMLSchema-instance" xsi:noNamespaceSchemaLocation="http://sumo.dlr.de/xsd/sumoConfiguration.xsd">

    <input>
        <net-file value="avhuaynacapac.net.xml"/>
        <route-files value="avhuaynacapac.rou.xml"/>
        <additional-files value="avhuaynacapac.poly.xml,detectores.add.xml"/>
    </input>

    <output>
        <emission-output value="co2.xml"/>
        <fcd-output value="fcd.xml"/>
        <tripinfo-output value="tripinfo.xml"/>
        <edgedata-output value="edgedata.xml"/>
    </output>

    <time>
        <begin value="0"/>
        <end value="3600"/>
        <step-length value="1"/>
    </time>

    <processing>
        <ignore-route-errors value="true"/>
    </processing>

    <report>
        <verbose value="true"/>
    </report>

    <emissions>
        <device.emissions.probability value="1"/>
    </emissions>

</configuration>
-->

<tripinfos xmlns:xsi="http://www.w3.org/2001/XMLSchema-instance" xsi:noNamespaceSchemaLocation="http://sumo.dlr.de/xsd/tripinfo_file.xsd">
    <tripinfo id="6" depart="18.00" departLane="-389741419_0" departPos="5.10" departSpeed="0.00" departDelay="0.00" arrival="71.00" arrivalLane="311212628#1_0" arrivalPos="107.44" arrivalSpeed="7.49" duration="53.00" routeLength="476.10" waitingTime="0.00" waitingCount="0" stopTime="0.00" timeLoss="14.57" rerouteNo="0" devices="tripinfo_6 emissions_6 fcd_6" vType="DEFAULT_VEHTYPE" speedFactor="1.03" vaporized="">
        <emissions CO_abs="3077.672783" CO2_abs="175828.669145" HC_abs="18.124273" PMx_abs="3.264723" NOx_abs="73.360785" fuel_abs="56081.285883" electricity_abs="0"/>
    </tripinfo>
    <tripinfo id="2" depart="6.00" departLane="48583899#1_0" departPos="5.10" departSpeed="0.00" departDelay="0.00" arrival="93.00" arrivalLane="48202925#0_0" arrivalPos="3.31" arrivalSpeed="8.39" duration="87.00" routeLength="254.16" waitingTime="46.00" waitingCount="1" stopTime="0.00" timeLoss="55.22" rerouteNo="0" devices="tripinfo_2 emissions_2 fcd_2" vType="DEFAULT_VEHTYPE" speedFactor="0.94" vaporized="">
        <emissions CO_abs="10266.965020" CO2_abs="222960.543399" HC_abs="51.920968" PMx_abs="4.718293" NOx_abs="97.120520" fuel_abs="71117.557365" electricity_abs="0"/>
    </tripinfo>
    <tripinfo id="9" depart="27.00" departLane="49577049#1_0" departPos="5.10" departSpeed="0.00" departDelay="0.00" arrival="93.00" arrivalLane="-389741416_0" arrivalPos="2.47" arrivalSpeed="8.20" duration="66.00" routeLength="307.66" waitingTime="23.00" waitingCount="1" stopTime="0.00" timeLoss="33.30" rerouteNo="0" devices="tripinfo_9 emissions_9 fcd_9" vType="DEFAULT_VEHTYPE" speedFactor="0.89" vaporized="">
        <emissions CO_abs="6524.000283" CO2_abs="185753.659814" HC_abs="34.043113" PMx_abs="3.758612" NOx_abs="79.820328" fuel_abs="59248.610716" electricity_abs="0"/>
    </tripinfo>
    <tripinfo id="11" depart="33.00" departLane="399285452#3_0" departPos="5.10" departSpeed="0.00" departDelay="0.00" arrival="118.00" arrivalLane="285931678_0" arrivalPos="100.10" arrivalSpeed="6.62" duration="85.00" routeLength="515.30" waitingTime="2.00" waitingCount="1" stopTime="0.00" timeLoss="16.58" rerouteNo="0" devices="tripinfo_11 emissions_11 fcd_11" vType="DEFAULT_VEHTYPE" speedFactor="0.86" vaporized="">
        <emissions CO_abs="4709.675967" CO2_abs="178919.860928" HC_abs="25.569804" PMx_abs="3.133357" NOx_abs="74.165388" fuel_abs="57068.398709" electricity_abs="0"/>
    </tripinfo>
    <tripinfo id="18" depart="54.00" departLane="49582170_0" departPos="5.10" departSpeed="0.00" departDelay="0.00" arrival="124.00" arrivalLane="42492699#3_1" arrivalPos="32.35" arrivalSpeed="6.83" duration="70.00" routeLength="450.05" waitingTime="0.00" waitingCount="0" stopTime="0.00" timeLoss="9.15" rerouteNo="0" devices="tripinfo_18 emissions_18 fcd_18" vType="DEFAULT_VEHTYPE" speedFactor="0.88" vaporized="">
        <emissions CO_abs="3505.625722" CO2_abs="142748.549635" HC_abs="19.185558" PMx_abs="2.117174" NOx_abs="56.809990" fuel_abs="45531.438381" electricity_abs="0"/>
    </tripinfo>
    <tripinfo id="39" depart="117.00" departLane="337277984#5_0" departPos="5.10" departSpeed="0.00" departDelay="0.00" arrival="156.00" arrivalLane="337277984#6_1" arrivalPos="140.87" arrivalSpeed="7.37" duration="39.00" routeLength="254.39" waitingTime="0.00" waitingCount="0" stopTime="0.00" timeLoss="7.96" rerouteNo="0" devices="tripinfo_39 emissions_39 fcd_39" vType="DEFAULT_VEHTYPE" speedFactor="1.01" vaporized="">
        <emissions CO_abs="2159.593421" CO2_abs="85326.519462" HC_abs="11.800840" PMx_abs="1.480736" NOx_abs="35.266208" fuel_abs="27215.765497" electricity_abs="0"/>
    </tripinfo>
    <tripinfo id="13" depart="39.00" departLane="-48202923_0" departPos="5.10" departSpeed="0.00" departDelay="0.00" arrival="166.00" arrivalLane="-972644144#1_0" arrivalPos="71.12" arrivalSpeed="14.00" duration="127.00" routeLength="930.04" waitingTime="38.00" waitingCount="1" stopTime="0.00" timeLoss="56.86" rerouteNo="0" devices="tripinfo_13 emissions_13 fcd_13" vType="DEFAULT_VEHTYPE" speedFactor="1.03" vaporized="">
        <emissions CO_abs="10446.586617" CO2_abs="378475.144229" HC_abs="55.966662" PMx_abs="7.150064" NOx_abs="156.795650" fuel_abs="120718.587044" electricity_abs="0"/>
    </tripinfo>
    <tripinfo id="7" depart="21.00" departLane="47861233_0" departPos="5.10" departSpeed="0.00" departDelay="0.00" arrival="170.00" arrivalLane="42201276#2_0" arrivalPos="205.35" arrivalSpeed="6.33" duration="149.00" routeLength="845.14" waitingTime="18.00" waitingCount="1" stopTime="0.00" timeLoss="36.25" rerouteNo="0" devices="tripinfo_7 emissions_7 fcd_7" vType="DEFAULT_VEHTYPE" speedFactor="0.83" vaporized="">
        <emissions CO_abs="9629.375147" CO2_abs="311462.047136" HC_abs="50.943705" PMx_abs="5.232599" NOx_abs="127.393233" fuel_abs="99345.326641" electricity_abs="0"/>
    </tripinfo>
    <tripinfo id="16" depart="48.00" departLane="42195044#7_0" departPos="5.10" departSpeed="0.00" departDelay="0.00" arrival="186.00" arrivalLane="894151134#0_0" arrivalPos="21.88" arrivalSpeed="7.66" duration="138.00" routeLength="390.71" waitingTime="68.00" waitingCount="3" stopTime="0.00" timeLoss="85.80" rerouteNo="0" devices="tripinfo_16 emissions_16 fcd_16" vType="DEFAULT_VEHTYPE" speedFactor="0.99" vaporized="">
        <emissions CO_abs="15963.521047" CO2_abs="346273.035829" HC_abs="80.722223" PMx_abs="7.491557" NOx_abs="151.783868" fuel_abs="110450.279338" electricity_abs="0"/>
    </tripinfo>
    <tripinfo id="0" depart="0.00" departLane="45421575#3_0" departPos="0.20" departSpeed="0.00" departDelay="0.00" arrival="194.00" arrivalLane="-389741419_0" arrivalPos="106.76" arrivalSpeed="13.63" duration="194.00" routeLength="943.28" waitingTime="90.00" waitingCount="3" stopTime="0.00" timeLoss="115.89" rerouteNo="0" devices="tripinfo_0 emissions_0 fcd_0" vType="DEFAULT_VEHTYPE" speedFactor="1.06" vaporized="">
        <emissions CO_abs="20577.779928" CO2_abs="555432.038380" HC_abs="106.464742" PMx_abs="11.343694" NOx_abs="237.440608" fuel_abs="177163.136311" electricity_abs="0"/>
    </tripinfo>
    <tripinfo id="32" depart="96.00" departLane="542434369#1_0" departPos="5.10" departSpeed="0.00" departDelay="0.00" arrival="196.00" arrivalLane="492470513#0_0" arrivalPos="95.95" arrivalSpeed="7.08" duration="100.00" routeLength="426.19" waitingTime="42.00" waitingCount="2" stopTime="0.00" timeLoss="55.69" rerouteNo="0" devices="tripinfo_32 emissions_32 fcd_32" vType="DEFAULT_VEHTYPE" speedFactor="0.92" vaporized="">
        <emissions CO_abs="10290.560781" CO2_abs="267559.812122" HC_abs="53.078017" PMx_abs="5.562280" NOx_abs="115.667788" fuel_abs="85342.193763" electricity_abs="0"/>
    </tripinfo>
    <tripinfo id="15" depart="45.00" departLane="49577049#1_0" departPos="5.10" departSpeed="0.00" departDelay="0.00" arrival="199.00" arrivalLane="48501815#4_0" arrivalPos="207.41" arrivalSpeed="14.72" duration="154.00" routeLength="1150.89" waitingTime="34.00" waitingCount="2" stopTime="0.00" timeLoss="70.09" rerouteNo="0" devices="tripinfo_15 emissions_15 fcd_15" vType="DEFAULT_VEHTYPE" speedFactor="1.12" vaporized="">
        <emissions CO_abs="12512.450914" CO2_abs="479821.066537" HC_abs="67.854190" PMx_abs="9.086233" NOx_abs="199.882649" fuel_abs="153043.371563" electricity_abs="0"/>
    </tripinfo>
    <tripinfo id="17" depart="51.00" departLane="416775490#0_0" departPos="0.20" departSpeed="0.00" departDelay="0.00" arrival="202.00" arrivalLane="42201277#0_0" arrivalPos="62.32" arrivalSpeed="6.92" duration="151.00" routeLength="852.98" waitingTime="55.00" waitingCount="2" stopTime="0.00" timeLoss="72.66" rerouteNo="0" devices="tripinfo_17 emissions_17 fcd_17" vType="DEFAULT_VEHTYPE" speedFactor="0.93" vaporized="">
        <emissions CO_abs="13659.562245" CO2_abs="397005.528167" HC_abs="71.294765" PMx_abs="7.761744" NOx_abs="167.589089" fuel_abs="126630.429190" electricity_abs="0"/>
    </tripinfo>
    <tripinfo id="26" depart="78.00" departLane="337277984#5_0" departPos="5.10" departSpeed="0.00" departDelay="0.00" arrival="218.00" arrivalLane="604749597_1" arrivalPos="56.51" arrivalSpeed="13.51" duration="140.00" routeLength="808.77" waitingTime="52.00" waitingCount="2" stopTime="0.00" timeLoss="67.36" rerouteNo="0" devices="tripinfo_26 emissions_26 fcd_26" vType="DEFAULT_VEHTYPE" speedFactor="0.97" vaporized="">
        <emissions CO_abs="12613.688972" CO2_abs="367089.093307" HC_abs="65.818831" PMx_abs="7.125888" NOx_abs="154.500646" fuel_abs="117088.214371" electricity_abs="0"/>
    </tripinfo>
    <tripinfo id="55" depart="165.00" departLane="552651836_0" departPos="5.10" departSpeed="0.00" departDelay="0.00" arrival="222.00" arrivalLane="389741417#1_0" arrivalPos="73.13" arrivalSpeed="13.23" duration="57.00" routeLength="547.09" waitingTime="0.00" waitingCount="0" stopTime="0.00" timeLoss="7.70" rerouteNo="0" devices="tripinfo_55 emissions_55 fcd_55" vType="DEFAULT_VEHTYPE" speedFactor="1.00" vaporized="">
        <emissions CO_abs="2596.983944" CO2_abs="161209.055580" HC_abs="15.548849" PMx_abs="2.621133" NOx_abs="64.535672" fuel_abs="51418.605401" electricity_abs="0"/>
    </tripinfo>
    <tripinfo id="3" depart="9.00" departLane="554582109#2_0" departPos="0.20" departSpeed="0.00" departDelay="0.00" arrival="223.00" arrivalLane="-604749597_0" arrivalPos="56.51" arrivalSpeed="13.59" duration="214.00" routeLength="1308.97" waitingTime="68.00" waitingCount="2" stopTime="0.00" timeLoss="95.78" rerouteNo="0" devices="tripinfo_3 emissions_3 fcd_3" vType="DEFAULT_VEHTYPE" speedFactor="1.01" vaporized="">
        <emissions CO_abs="18768.494631" CO2_abs="604259.049459" HC_abs="99.533865" PMx_abs="11.893076" NOx_abs="256.068801" fuel_abs="192735.410783" electricity_abs="0"/>
    </tripinfo>
    <tripinfo id="57" depart="171.00" departLane="559910546#3_0" departPos="0.20" departSpeed="0.00" departDelay="0.00" arrival="226.00" arrivalLane="542440756_0" arrivalPos="99.26" arrivalSpeed="6.07" duration="55.00" routeLength="412.91" waitingTime="6.00" waitingCount="1" stopTime="0.00" timeLoss="22.14" rerouteNo="0" devices="tripinfo_57 emissions_57 fcd_57" vType="DEFAULT_VEHTYPE" speedFactor="0.88" vaporized="">
        <emissions CO_abs="4005.637267" CO2_abs="175068.475157" HC_abs="22.319374" PMx_abs="3.243684" NOx_abs="72.908467" fuel_abs="55839.436297" electricity_abs="0"/>
    </tripinfo>
    <tripinfo id="36" depart="108.00" departLane="552651836_0" departPos="5.10" departSpeed="0.00" departDelay="0.00" arrival="227.00" arrivalLane="399285452#3_0" arrivalPos="41.55" arrivalSpeed="6.65" duration="119.00" routeLength="578.52" waitingTime="37.00" waitingCount="1" stopTime="0.00" timeLoss="53.06" rerouteNo="0" devices="tripinfo_36 emissions_36 fcd_36" vType="DEFAULT_VEHTYPE" speedFactor="0.93" vaporized="">
        <emissions CO_abs="10251.614373" CO2_abs="290279.067559" HC_abs="53.370395" PMx_abs="5.628162" NOx_abs="123.123952" fuel_abs="92588.696700" electricity_abs="0"/>
    </tripinfo>
    <tripinfo id="50" depart="150.00" departLane="-389741416_0" departPos="2.47" departSpeed="0.00" departDelay="0.00" arrival="231.00" arrivalLane="48501815#2_0" arrivalPos="0.20" arrivalSpeed="12.38" duration="81.00" routeLength="609.09" waitingTime="15.00" waitingCount="2" stopTime="0.00" timeLoss="30.73" rerouteNo="0" devices="tripinfo_50 emissions_50 fcd_50" vType="DEFAULT_VEHTYPE" speedFactor="0.96" vaporized="">
        <emissions CO_abs="6264.250963" CO2_abs="249105.976472" HC_abs="34.308464" PMx_abs="4.656782" NOx_abs="103.811488" fuel_abs="79454.586882" electricity_abs="0"/>
    </tripinfo>
    <tripinfo id="12" depart="36.00" departLane="893257053_0" departPos="5.10" departSpeed="0.00" departDelay="0.00" arrival="236.00" arrivalLane="40668087#1_0" arrivalPos="120.97" arrivalSpeed="9.07" duration="200.00" routeLength="1403.31" waitingTime="61.00" waitingCount="3" stopTime="0.00" timeLoss="86.04" rerouteNo="0" devices="tripinfo_12 emissions_12 fcd_12" vType="DEFAULT_VEHTYPE" speedFactor="1.09" vaporized="">
        <emissions CO_abs="16358.309444" CO2_abs="541087.385737" HC_abs="86.562586" PMx_abs="10.157855" NOx_abs="224.083291" fuel_abs="172586.417116" electricity_abs="0"/>
    </tripinfo>
    <tripinfo id="24" depart="72.00" departLane="45421575#2_0" departPos="5.10" departSpeed="0.00" departDelay="0.00" arrival="251.00" arrivalLane="410645793_0" arrivalPos="19.41" arrivalSpeed="2.47" duration="179.00" routeLength="1128.55" waitingTime="39.00" waitingCount="1" stopTime="0.00" timeLoss="63.63" rerouteNo="0" devices="tripinfo_24 emissions_24 fcd_24" vType="DEFAULT_VEHTYPE" speedFactor="1.01" vaporized="">
        <emissions CO_abs="13717.690734" CO2_abs="448703.916944" HC_abs="72.625058" PMx_abs="8.368498" NOx_abs="186.636996" fuel_abs="143119.695128" electricity_abs="0"/>
    </tripinfo>
    <tripinfo id="47" depart="141.00" departLane="-410645794_0" departPos="5.10" departSpeed="0.00" departDelay="0.00" arrival="256.00" arrivalLane="42141326#0_0" arrivalPos="59.81" arrivalSpeed="8.72" duration="115.00" routeLength="1037.14" waitingTime="10.00" waitingCount="2" stopTime="0.00" timeLoss="38.75" rerouteNo="0" devices="tripinfo_47 emissions_47 fcd_47" vType="DEFAULT_VEHTYPE" speedFactor="1.10" vaporized="">
        <emissions CO_abs="7711.352247" CO2_abs="379820.961467" HC_abs="43.706608" PMx_abs="6.987397" NOx_abs="156.607433" fuel_abs="121146.274282" electricity_abs="0"/>
    </tripinfo>
    <tripinfo id="5" depart="15.00" departLane="334968130#0_0" departPos="0.20" departSpeed="0.00" departDelay="0.00" arrival="260.00" arrivalLane="42195044#2_0" arrivalPos="71.43" arrivalSpeed="7.75" duration="245.00" routeLength="1521.94" waitingTime="87.00" waitingCount="2" stopTime="0.00" timeLoss="112.92" rerouteNo="0" devices="tripinfo_5 emissions_5 fcd_5" vType="DEFAULT_VEHTYPE" speedFactor="1.08" vaporized="">
        <emissions CO_abs="21551.719074" CO2_abs="668908.863729" HC_abs="113.362273" PMx_abs="12.961288" NOx_abs="280.912488" fuel_abs="213356.976374" electricity_abs="0"/>
    </tripinfo>
    <tripinfo id="79" depart="237.00" departLane="334968591#1_0" departPos="5.10" departSpeed="0.00" departDelay="0.00" arrival="264.00" arrivalLane="334968591#3_0" arrivalPos="68.37" arrivalSpeed="7.61" duration="27.00" routeLength="183.06" waitingTime="0.00" waitingCount="0" stopTime="0.00" timeLoss="3.29" rerouteNo="0" devices="tripinfo_79 emissions_79 fcd_79" vType="DEFAULT_VEHTYPE" speedFactor="0.94" vaporized="">
        <emissions CO_abs="1407.108934" CO2_abs="58813.038820" HC_abs="7.742970" PMx_abs="0.905469" NOx_abs="23.594269" fuel_abs="18759.096355" electricity_abs="0"/>
    </tripinfo>
    <tripinfo id="31" depart="93.00" departLane="42201277#0_0" departPos="5.10" departSpeed="0.00" departDelay="0.00" arrival="268.00" arrivalLane="48202929#0_1" arrivalPos="93.83" arrivalSpeed="11.16" duration="175.00" routeLength="1086.52" waitingTime="41.00" waitingCount="2" stopTime="0.00" timeLoss="64.52" rerouteNo="0" devices="tripinfo_31 emissions_31 fcd_31" vType="DEFAULT_VEHTYPE" speedFactor="0.87" vaporized="">
        <emissions CO_abs="13282.997653" CO2_abs="446459.770466" HC_abs="70.751843" PMx_abs="8.050632" NOx_abs="184.583923" fuel_abs="142403.976644" electricity_abs="0"/>
    </tripinfo>
    <tripinfo id="8" depart="24.00" departLane="334968130#0_0" departPos="0.20" departSpeed="0.00" departDelay="0.00" arrival="270.00" arrivalLane="42201281#0_0" arrivalPos="80.01" arrivalSpeed="7.75" duration="246.00" routeLength="1566.97" waitingTime="74.00" waitingCount="3" stopTime="0.00" timeLoss="104.74" rerouteNo="0" devices="tripinfo_8 emissions_8 fcd_8" vType="DEFAULT_VEHTYPE" speedFactor="1.05" vaporized="">
        <emissions CO_abs="19795.232138" CO2_abs="640356.060421" HC_abs="104.723294" PMx_abs="12.034662" NOx_abs="266.861091" fuel_abs="204249.572056" electricity_abs="0"/>
    </tripinfo>
    <tripinfo id="66" depart="198.00" departLane="552651836_0" departPos="5.10" departSpeed="0.00" departDelay="0.00" arrival="272.00" arrivalLane="65107406#1_1" arrivalPos="0.20" arrivalSpeed="4.71" duration="74.00" routeLength="279.62" waitingTime="38.00" waitingCount="1" stopTime="0.00" timeLoss="47.60" rerouteNo="0" devices="tripinfo_66 emissions_66 fcd_66" vType="DEFAULT_VEHTYPE" speedFactor="0.90" vaporized="">
        <emissions CO_abs="8250.523187" CO2_abs="187295.306554" HC_abs="41.932245" PMx_abs="4.026801" NOx_abs="81.716697" fuel_abs="59741.154604" electricity_abs="0"/>
    </tripinfo>
    <tripinfo id="20" depart="60.00" departLane="48202933_0" departPos="5.10" departSpeed="0.00" departDelay="0.00" arrival="274.00" arrivalLane="-47861233_1" arrivalPos="75.45" arrivalSpeed="5.90" duration="214.00" routeLength="1476.69" waitingTime="41.00" waitingCount="4" stopTime="0.00" timeLoss="80.87" rerouteNo="0" devices="tripinfo_20 emissions_20 fcd_20" vType="DEFAULT_VEHTYPE" speedFactor="0.94" vaporized="">
        <emissions CO_abs="15238.026937" CO2_abs="550976.852329" HC_abs="82.004045" PMx_abs="10.148062" NOx_abs="228.579689" fuel_abs="175740.065438" electricity_abs="0"/>
    </tripinfo>
    <tripinfo id="10" depart="30.00" departLane="49577049#1_0" departPos="5.10" departSpeed="0.00" departDelay="0.00" arrival="279.00" arrivalLane="48202933_1" arrivalPos="70.46" arrivalSpeed="12.74" duration="249.00" routeLength="991.45" waitingTime="129.00" waitingCount="4" stopTime="0.00" timeLoss="159.89" rerouteNo="0" devices="tripinfo_10 emissions_10 fcd_10" vType="DEFAULT_VEHTYPE" speedFactor="0.94" vaporized="">
        <emissions CO_abs="28325.109923" CO2_abs="689987.360961" HC_abs="145.025261" PMx_abs="14.843814" NOx_abs="300.714639" fuel_abs="220082.381501" electricity_abs="0"/>
    </tripinfo>
    <tripinfo id="23" depart="69.00" departLane="-48202929#1_0" departPos="0.20" departSpeed="0.00" departDelay="0.00" arrival="283.00" arrivalLane="398532019#0_0" arrivalPos="108.76" arrivalSpeed="13.74" duration="214.00" routeLength="570.40" waitingTime="121.00" waitingCount="4" stopTime="0.00" timeLoss="147.54" rerouteNo="0" devices="tripinfo_23 emissions_23 fcd_23" vType="DEFAULT_VEHTYPE" speedFactor="1.02" vaporized="">
        <emissions CO_abs="26324.681831" CO2_abs="556829.695638" HC_abs="132.877627" PMx_abs="12.336607" NOx_abs="245.435365" fuel_abs="177611.410919" electricity_abs="0"/>
    </tripinfo>
    <tripinfo id="28" depart="84.00" departLane="285931678_0" departPos="5.10" departSpeed="0.00" departDelay="0.00" arrival="291.00" arrivalLane="48501815#4_0" arrivalPos="207.41" arrivalSpeed="11.35" duration="207.00" routeLength="989.31" waitingTime="87.00" waitingCount="2" stopTime="0.00" timeLoss="107.59" rerouteNo="0" devices="tripinfo_28 emissions_28 fcd_28" vType="DEFAULT_VEHTYPE" speedFactor="0.89" vaporized="">
        <emissions CO_abs="19690.591807" CO2_abs="517091.891708" HC_abs="101.570870" PMx_abs="10.192670" NOx_abs="219.180447" fuel_abs="164934.736728" electricity_abs="0"/>
    </tripinfo>
    <tripinfo id="40" depart="120.00" departLane="42201277#1_0" departPos="5.10" departSpeed="0.00" departDelay="0.00" arrival="291.00" arrivalLane="389741417#1_1" arrivalPos="73.13" arrivalSpeed="15.99" duration="171.00" routeLength="768.75" waitingTime="76.00" waitingCount="5" stopTime="0.00" timeLoss="116.79" rerouteNo="0" devices="tripinfo_40 emissions_40 fcd_40" vType="DEFAULT_VEHTYPE" speedFactor="1.17" vaporized="">
        <emissions CO_abs="18899.662390" CO2_abs="488801.771366" HC_abs="97.437376" PMx_abs="10.302622" NOx_abs="211.137684" fuel_abs="155910.588513" electricity_abs="0"/>
    </tripinfo>
    <tripinfo id="44" depart="132.00" departLane="-48202923_0" departPos="5.10" departSpeed="0.00" departDelay="0.00" arrival="291.00" arrivalLane="-47861233_0" arrivalPos="75.45" arrivalSpeed="13.08" duration="159.00" routeLength="1262.38" waitingTime="35.00" waitingCount="1" stopTime="0.00" timeLoss="62.63" rerouteNo="0" devices="tripinfo_44 emissions_44 fcd_44" vType="DEFAULT_VEHTYPE" speedFactor="0.97" vaporized="">
        <emissions CO_abs="12235.886269" CO2_abs="518778.524724" HC_abs="67.572054" PMx_abs="9.634439" NOx_abs="214.821436" fuel_abs="165468.668563" electricity_abs="0"/>
    </tripinfo>
    <tripinfo id="14" depart="42.00" departLane="542434369#2_0" departPos="0.20" departSpeed="0.00" departDelay="0.00" arrival="305.00" arrivalLane="424074247_0" arrivalPos="33.09" arrivalSpeed="12.59" duration="263.00" routeLength="1469.07" waitingTime="95.00" waitingCount="4" stopTime="0.00" timeLoss="143.72" rerouteNo="0" devices="tripinfo_14 emissions_14 fcd_14" vType="DEFAULT_VEHTYPE" speedFactor="1.05" vaporized="">
        <emissions CO_abs="25662.850957" CO2_abs="780823.176595" HC_abs="135.024508" PMx_abs="15.890860" NOx_abs="334.038769" fuel_abs="249052.888359" electricity_abs="0"/>
    </tripinfo>
    <tripinfo id="33" depart="99.00" departLane="334968591#0_0" departPos="5.10" departSpeed="0.00" departDelay="0.00" arrival="306.00" arrivalLane="-402762621_0" arrivalPos="55.79" arrivalSpeed="2.50" duration="207.00" routeLength="1534.59" waitingTime="7.00" waitingCount="2" stopTime="0.00" timeLoss="44.42" rerouteNo="0" devices="tripinfo_33 emissions_33 fcd_33" vType="DEFAULT_VEHTYPE" speedFactor="0.95" vaporized="">
        <emissions CO_abs="11180.864875" CO2_abs="490957.966461" HC_abs="62.032099" PMx_abs="8.277794" NOx_abs="199.096321" fuel_abs="156595.692982" electricity_abs="0"/>
    </tripinfo>
    <tripinfo id="37" depart="111.00" departLane="47861236_0" departPos="5.10" departSpeed="0.00" departDelay="0.00" arrival="308.00" arrivalLane="42141326#11_0" arrivalPos="112.14" arrivalSpeed="9.69" duration="197.00" routeLength="1444.48" waitingTime="31.00" waitingCount="2" stopTime="0.00" timeLoss="52.59" rerouteNo="0" devices="tripinfo_37 emissions_37 fcd_37" vType="DEFAULT_VEHTYPE" speedFactor="1.18" vaporized="">
        <emissions CO_abs="11496.703471" CO2_abs="460321.105982" HC_abs="62.903278" PMx_abs="7.520923" NOx_abs="185.471852" fuel_abs="146824.691106" electricity_abs="0"/>
    </tripinfo>
    <tripinfo id="21" depart="63.00" departLane="334968591#0_0" departPos="5.10" departSpeed="0.00" departDelay="0.00" arrival="311.00" arrivalLane="398532019#2_0" arrivalPos="151.13" arrivalSpeed="15.90" duration="248.00" routeLength="1616.65" waitingTime="104.00" waitingCount="3" stopTime="0.00" timeLoss="135.02" rerouteNo="0" devices="tripinfo_21 emissions_21 fcd_21" vType="DEFAULT_VEHTYPE" speedFactor="1.16" vaporized="">
        <emissions CO_abs="23174.019800" CO2_abs="687141.338127" HC_abs="120.960814" PMx_abs="13.489486" NOx_abs="287.232050" fuel_abs="219173.022652" electricity_abs="0"/>
    </tripinfo>
    <tripinfo id="63" depart="189.00" departLane="-389741417#1_0" departPos="5.10" departSpeed="0.00" departDelay="0.00" arrival="318.00" arrivalLane="559910546#5_1" arrivalPos="0.20" arrivalSpeed="6.18" duration="129.00" routeLength="592.48" waitingTime="71.00" waitingCount="2" stopTime="0.00" timeLoss="85.84" rerouteNo="0" devices="tripinfo_63 emissions_63 fcd_63" vType="DEFAULT_VEHTYPE" speedFactor="1.10" vaporized="">
        <emissions CO_abs="15233.224370" CO2_abs="389978.719930" HC_abs="78.459229" PMx_abs="8.383595" NOx_abs="169.183088" fuel_abs="124389.441552" electricity_abs="0"/>
    </tripinfo>
    <tripinfo id="30" depart="90.00" departLane="940158936#2_0" departPos="5.10" departSpeed="0.00" departDelay="0.00" arrival="321.00" arrivalLane="45421576#0_0" arrivalPos="82.69" arrivalSpeed="10.47" duration="231.00" routeLength="1001.64" waitingTime="111.00" waitingCount="3" stopTime="0.00" timeLoss="132.84" rerouteNo="0" devices="tripinfo_30 emissions_30 fcd_30" vType="DEFAULT_VEHTYPE" speedFactor="0.83" vaporized="">
        <emissions CO_abs="23659.690099" CO2_abs="579751.361191" HC_abs="121.164094" PMx_abs="11.745817" NOx_abs="247.807885" fuel_abs="184921.634327" electricity_abs="0"/>
    </tripinfo>
    <tripinfo id="43" depart="129.00" departLane="972644144#1_0" departPos="5.10" departSpeed="0.00" departDelay="0.00" arrival="326.00" arrivalLane="42195044#3_0" arrivalPos="100.03" arrivalSpeed="7.63" duration="197.00" routeLength="1410.51" waitingTime="47.00" waitingCount="2" stopTime="0.00" timeLoss="75.99" rerouteNo="0" devices="tripinfo_43 emissions_43 fcd_43" vType="DEFAULT_VEHTYPE" speedFactor="1.02" vaporized="">
        <emissions CO_abs="15190.042472" CO2_abs="557705.026151" HC_abs="81.816284" PMx_abs="10.317420" NOx_abs="230.963949" fuel_abs="177885.898381" electricity_abs="0"/>
    </tripinfo>
    <tripinfo id="19" depart="57.00" departLane="542435213_0" departPos="5.10" departSpeed="0.00" departDelay="0.00" arrival="329.00" arrivalLane="42201278#0_0" arrivalPos="84.15" arrivalSpeed="7.56" duration="272.00" routeLength="1527.76" waitingTime="96.00" waitingCount="5" stopTime="0.00" timeLoss="136.86" rerouteNo="0" devices="tripinfo_19 emissions_19 fcd_19" vType="DEFAULT_VEHTYPE" speedFactor="0.94" vaporized="">
        <emissions CO_abs="24858.638479" CO2_abs="724234.781928" HC_abs="129.815372" PMx_abs="14.230962" NOx_abs="306.232323" fuel_abs="231004.616735" electricity_abs="0"/>
    </tripinfo>
    <tripinfo id="52" depart="156.00" departLane="337277984#5_0" departPos="5.10" departSpeed="0.00" departDelay="0.00" arrival="330.00" arrivalLane="45421576#1_0" arrivalPos="82.96" arrivalSpeed="13.17" duration="174.00" routeLength="939.48" waitingTime="61.00" waitingCount="2" stopTime="0.00" timeLoss="91.19" rerouteNo="0" devices="tripinfo_52 emissions_52 fcd_52" vType="DEFAULT_VEHTYPE" speedFactor="1.04" vaporized="">
        <emissions CO_abs="16315.794891" CO2_abs="483455.638204" HC_abs="85.463321" PMx_abs="9.645045" NOx_abs="205.893294" fuel_abs="154204.417744" electricity_abs="0"/>
    </tripinfo>
    <tripinfo id="60" depart="180.00" departLane="48909342#3_0" departPos="5.10" departSpeed="0.00" departDelay="0.00" arrival="339.00" arrivalLane="42201276#1_0" arrivalPos="75.86" arrivalSpeed="6.54" duration="159.00" routeLength="987.38" waitingTime="39.00" waitingCount="2" stopTime="0.00" timeLoss="61.75" rerouteNo="0" devices="tripinfo_60 emissions_60 fcd_60" vType="DEFAULT_VEHTYPE" speedFactor="0.85" vaporized="">
        <emissions CO_abs="11894.252334" CO2_abs="384532.946701" HC_abs="63.031421" PMx_abs="7.143538" NOx_abs="160.283949" fuel_abs="122651.683790" electricity_abs="0"/>
    </tripinfo>
    <tripinfo id="56" depart="168.00" departLane="42143918#9_0" departPos="5.10" departSpeed="0.00" departDelay="0.00" arrival="343.00" arrivalLane="303057278_0" arrivalPos="7.53" arrivalSpeed="11.98" duration="175.00" routeLength="1128.65" waitingTime="41.00" waitingCount="2" stopTime="0.00" timeLoss="64.10" rerouteNo="0" devices="tripinfo_56 emissions_56 fcd_56" vType="DEFAULT_VEHTYPE" speedFactor="0.90" vaporized="">
        <emissions CO_abs="12869.918399" CO2_abs="445209.229587" HC_abs="68.835865" PMx_abs="7.972570" NOx_abs="183.555536" fuel_abs="142004.927344" electricity_abs="0"/>
    </tripinfo>
    <tripinfo id="35" depart="105.00" departLane="311212628#0_0" departPos="5.10" departSpeed="0.00" departDelay="0.00" arrival="361.00" arrivalLane="65107406#0_1" arrivalPos="0.20" arrivalSpeed="3.30" duration="256.00" routeLength="1233.02" waitingTime="122.00" waitingCount="4" stopTime="0.00" timeLoss="153.10" rerouteNo="0" devices="tripinfo_35 emissions_35 fcd_35" vType="DEFAULT_VEHTYPE" speedFactor="1.13" vaporized="">
        <emissions CO_abs="27038.362291" CO2_abs="707499.333040" HC_abs="139.458883" PMx_abs="14.677472" NOx_abs="303.940736" fuel_abs="225667.468555" electricity_abs="0"/>
    </tripinfo>
    <tripinfo id="106" depart="318.00" departLane="42143918#10_0" departPos="5.10" departSpeed="0.00" departDelay="0.00" arrival="364.00" arrivalLane="42141326#4_0" arrivalPos="8.27" arrivalSpeed="9.01" duration="46.00" routeLength="317.97" waitingTime="2.00" waitingCount="1" stopTime="0.00" timeLoss="11.57" rerouteNo="0" devices="tripinfo_106 emissions_106 fcd_106" vType="DEFAULT_VEHTYPE" speedFactor="1.15" vaporized="">
        <emissions CO_abs="2856.528480" CO2_abs="119870.400559" HC_abs="15.767710" PMx_abs="2.023400" NOx_abs="49.009133" fuel_abs="38233.854169" electricity_abs="0"/>
    </tripinfo>
    <tripinfo id="54" depart="162.00" departLane="42143918#1_0" departPos="5.10" departSpeed="0.00" departDelay="0.00" arrival="367.00" arrivalLane="893240697_0" arrivalPos="19.38" arrivalSpeed="8.37" duration="205.00" routeLength="1225.02" waitingTime="50.00" waitingCount="2" stopTime="0.00" timeLoss="73.55" rerouteNo="0" devices="tripinfo_54 emissions_54 fcd_54" vType="DEFAULT_VEHTYPE" speedFactor="1.09" vaporized="">
        <emissions CO_abs="14867.104892" CO2_abs="467893.711370" HC_abs="78.460280" PMx_abs="8.371949" NOx_abs="193.697428" fuel_abs="149241.217943" electricity_abs="0"/>
    </tripinfo>